50
/cluster/projects/nn2506k/marcof/RuC_BondLength/evolutionary_desing/RUN28052021044948/Gen012/M00000098_I_DFT.out	Energy: -657400.7988335
Ru         0.12228        0.66076        0.33287
C         -0.16292       -0.05921        1.97689
C          2.00462        0.28374        0.10434
Cl        -0.69048       -1.01638       -1.20943
Cl         0.31660        2.96293        1.02949
H          0.58615       -0.42947        2.68617
H         -1.21553       -0.06060        2.32946
N          2.85390       -0.58656        0.78199
N          2.77715        0.96362       -0.82984
C          4.27938       -0.29737        0.46098
C          2.54264       -1.71365        1.61751
C          4.21646        0.45119       -0.89914
H          4.84416       -1.23334        0.40762
H          4.72442        0.34028        1.24176
C          4.38673       -0.50749       -2.12007
C          5.25293        1.60221       -0.98055
C          5.83976       -1.01679       -2.29327
H          3.69488       -1.35809       -2.01852
H          4.09300        0.03789       -3.02913
C          6.85762        0.14568       -2.34186
H          6.10654       -1.70193       -1.47059
H          5.89903       -1.61359       -3.21806
C          6.70364        1.07394       -1.11488
H          6.70094        0.73243       -3.26372
H          7.88438       -0.25210       -2.39007
H          7.38821        1.93357       -1.20026
H          7.00106        0.53154       -0.20097
H          5.15966        2.24807       -0.09406
H          5.02975        2.22455       -1.85895
C          3.20854       -1.86167        2.86033
C          1.64612       -2.71987        1.17945
C          2.97334       -2.99966        3.65905
H          3.89171       -1.08680        3.20940
C          2.06768       -3.99503        3.23205
H          3.48866       -3.10082        4.61577
C          1.40548       -3.84516        1.99329
H          1.88245       -4.87296        3.85271
H          0.70545       -4.60898        1.65066
H          1.13368       -2.61101        0.22670
C          2.23785        1.87141       -1.82654
C          1.51229        1.36207       -2.93100
C          2.45938        3.26430       -1.71691
C          1.01489        2.24238       -3.91485
H          1.31957        0.29427       -3.00693
C          1.24853        3.62982       -3.81151
H          0.44316        1.84129       -4.75308
C          1.97045        4.13682       -2.70855
H          0.86132        4.30946       -4.57245
H          2.13267        5.21090       -2.60675
H          2.97062        3.65932       -0.84176
