77
/cluster/projects/nn2506k/marcof/RuC_BondLength/evolutionary_desing/RUN28052021121055/Gen012/M00000109_I_DFT.out	Energy: -926329.9022777
Ru        -0.20251       -0.16861       -0.20967
C         -0.53086       -0.99204        1.37558
C          1.74026       -0.23220       -0.39144
Cl        -0.80986       -1.94655       -1.72706
Cl        -0.49309        2.11756        0.51716
H          0.18194       -1.39970        2.09593
H         -1.60744       -1.06906        1.64083
N          2.38080        0.41374       -1.44679
N          2.72670       -0.85135        0.37288
C          3.85261        0.21631       -1.44250
C          1.78113        1.16221       -2.54487
C          4.13062       -0.49556       -0.09521
H          4.15829       -0.38590       -2.30806
H          4.37103        1.18219       -1.50813
C          5.13566       -1.64737       -0.17432
H          4.52983        0.23135        0.62719
C          6.20993       -1.68414        0.74721
C          5.06848       -2.65663       -1.16701
C          7.19065       -2.69653        0.68458
H          6.28166       -0.91787        1.52176
C          7.11217       -3.69451       -0.30913
H          8.01028       -2.70385        1.40516
C          6.04473       -3.67005       -1.23392
H          7.86973       -4.47825       -0.36385
H          5.97361       -4.43862       -2.00568
H          4.25027       -2.66611       -1.88727
C          1.69445        2.58194       -2.44044
C          1.42342        0.47798       -3.74397
C          2.26541        3.32262       -1.24004
C          1.08322        3.30807       -3.50215
H          2.60585        2.63632       -0.46255
H          1.51571        3.97398       -0.77526
H          3.11911        3.95292       -1.54153
C          0.94168        4.82408       -3.40844
C          0.58820        2.61869       -4.64748
H          1.07712        5.30818       -4.38454
H          1.67313        5.26577       -2.72417
H         -0.05781        5.10918       -3.03655
C         -0.17476        3.38486       -5.72423
C          0.81456        1.21967       -4.79720
H         -0.71787        4.23898       -5.30324
H         -0.91455        2.74882       -6.22434
H          0.49853        3.77927       -6.50573
C          0.39582        0.51401       -6.08343
H          0.97765       -0.39619       -6.26213
H          0.52423        1.15779       -6.96306
H         -0.66599        0.21388       -6.04830
C          1.71736       -1.00366       -3.92950
H          0.82635       -1.55629       -4.24906
H          2.05408       -1.47353       -3.00422
H          2.49675       -1.14948       -4.69687
C          2.60046       -1.49550        1.67138
C          2.39283       -2.90337        1.73834
C          2.77310       -0.70624        2.84773
C          2.12674       -3.71896        0.48196
C          2.38637       -3.53560        3.01726
H          2.03025       -3.08443       -0.39878
H          1.18723       -4.28313        0.57155
H          2.93187       -4.44489        0.29392
C          2.19020       -5.04544        3.12377
C          2.56763       -2.76240        4.20109
H          2.91432       -5.49611        3.81728
H          2.31055       -5.54805        2.16031
H          1.18318       -5.29919        3.49706
C          2.52535       -3.43614        5.56960
C          2.77792       -1.35465        4.11625
H          1.94166       -4.36269        5.55461
H          2.07634       -2.78448        6.32935
H          3.53841       -3.69599        5.92412
C          3.00152       -0.54474        5.39030
H          3.48968        0.41453        5.19095
H          3.63418       -1.08681        6.10579
H          2.05003       -0.32243        5.90413
C          2.89729        0.81094        2.76941
H          2.20890        1.29598        3.47518
H          2.64120        1.19372        1.77997
H          3.91370        1.15687        3.02187
