100
/cluster/projects/nn2506k/marcof/RuC_BondLength/evolutionary_desing/RUN28052021044732/Gen026/M00000172_I_DFT.out	Energy: -1133594.0717265
Ru        -0.09780       -0.00822       -0.03685
C         -0.42154       -0.64548        1.63265
C          1.82108       -0.28647       -0.35404
Cl        -1.10562       -1.83350       -1.26808
Cl        -0.10518        2.34751        0.53837
H          0.26365       -1.10844        2.34469
H         -1.47773       -0.53446        1.96177
N          2.42342        0.23060       -1.50127
N          2.80925       -0.91293        0.39753
C          3.91964        0.21980       -1.35839
C          1.73609        0.95388       -2.57165
C          4.18636       -0.96558       -0.33946
C          4.70971        0.29061       -2.66355
H          4.19251        1.13365       -0.80815
C          5.40996       -0.56068        0.54979
C          4.36902       -2.38169       -0.98029
C          5.96516       -1.52971        1.62716
H          6.22681       -0.35991       -0.16289
H          5.19078        0.40171        1.03044
C          7.31501       -1.02791        2.20127
H          5.25133       -1.63956        2.45047
H          6.11458       -2.53581        1.21181
C          7.88598       -1.94771        3.30330
H          7.18440       -0.01037        2.61106
H          8.05335       -0.93850        1.38419
H          7.19003       -2.03028        4.15335
H          8.84237       -1.56097        3.68926
H          8.06661       -2.96502        2.92046
C          5.73478       -2.75543       -1.61982
H          4.17633       -3.11207       -0.18673
H          3.58684       -2.51908       -1.73669
C          5.68194       -4.15982       -2.27437
H          6.02983       -2.02936       -2.38498
H          6.53333       -2.75685       -0.86367
C          7.02866       -4.59553       -2.89330
H          4.90255       -4.16566       -3.05551
H          5.37099       -4.90551       -1.52095
H          6.95017       -5.59313       -3.35368
H          7.82439       -4.64077       -2.13209
H          7.35463       -3.89115       -3.67555
C          5.76096        1.23623       -2.77348
N          4.38154       -0.53595       -3.70023
C          6.49876        1.32284       -3.97118
H          5.99370        1.89883       -1.93977
C          6.15651        0.47386       -5.04359
H          7.31213        2.04342       -4.06752
C          5.08979       -0.43175       -4.85631
H          6.68958        0.51254       -5.99381
H          4.78505       -1.10429       -5.66119
C          1.77557        2.38141       -2.58498
C          1.10844        0.21966       -3.62418
C          2.50706        3.17624       -1.51247
C          1.10994        3.08135       -3.62998
H          2.65193        2.59545       -0.60091
H          1.93242        4.06042       -1.21653
H          3.49011        3.52478       -1.87391
C          1.17711        4.60514       -3.67785
C          0.36888        2.36428       -4.61266
H          0.40740        5.06578       -3.03412
H          1.02895        4.99039       -4.69306
H          2.14911        4.97869       -3.33213
C         -0.45949        3.12604       -5.64417
C          0.40059        0.94052       -4.63225
H          0.14991        3.44754       -6.50724
H         -0.90933        4.02808       -5.21030
H         -1.28059        2.51689       -6.03665
C         -0.32325        0.18733       -5.74533
H         -0.17192        0.66319       -6.72442
H         -1.41107        0.15498       -5.56178
H          0.01367       -0.84900       -5.83244
C          1.20704       -1.29343       -3.71939
H          1.75698       -1.57923       -4.62840
H          0.21679       -1.76142       -3.74952
H          1.74377       -1.71655       -2.87311
C          2.62236       -1.46938        1.73113
C          2.24607       -2.83781        1.89204
C          2.82087       -0.62086        2.86568
C          1.78568       -3.68935        0.71611
C          2.19926       -3.38815        3.20705
H          1.68789       -3.10647       -0.19836
H          0.79444       -4.11618        0.92492
H          2.46357       -4.53334        0.51530
C          1.84581       -4.85850        3.40757
C          2.45375       -2.56775        4.34383
H          2.01005       -5.45216        2.50306
H          0.78560       -4.98553        3.68847
H          2.44528       -5.31177        4.20820
C          2.37221       -3.18398        5.73724
C          2.74531       -1.18196        4.17547
H          2.31729       -2.43103        6.52836
H          3.25210       -3.81594        5.94839
H          1.48763       -3.82791        5.84016
C          2.97832       -0.30548        5.40450
H          2.05697       -0.18927        5.99901
H          3.31848        0.69986        5.14474
H          3.73802       -0.74197        6.07038
C          3.04786        0.87680        2.70335
H          2.97744        1.18895        1.66199
H          4.02897        1.19154        3.09197
H          2.28262        1.44572        3.25047
