37
/cluster/projects/nn2506k/marcof/RuC_BondLength/evolutionary_desing/RUN28052021121055/Gen026/M00000180_I_DFT.out	Energy: -534885.5489284
Ru        -0.08317       -0.27721       -0.05285
C         -0.21164       -0.56066        1.73817
C          1.82855       -0.05730       -0.21393
Cl        -0.24463       -2.47822       -1.04259
Cl        -0.65801        2.05770       -0.09194
H          0.58277       -0.47263        2.48814
H         -1.22762       -0.78949        2.12138
N          2.40003        0.62630       -1.28235
N          2.87357       -0.42071        0.63736
C          3.88869        0.66977       -1.20617
C          1.74091        1.06543       -2.49139
C          4.15209        0.25347        0.25228
H          4.32178       -0.03652       -1.93421
H          4.26417        1.67561       -1.42925
H          4.99370       -0.44264        0.35245
H          4.33439        1.12894        0.89567
C          1.82091        2.42555       -2.87129
C          1.08250        0.13464       -3.32867
C          1.23553        2.85330       -4.07796
H          2.29950        3.14715       -2.20937
C          0.55989        1.93109       -4.90876
H          1.28729        3.90645       -4.35859
C          0.48198        0.57559       -4.52737
H          0.09723        2.26756       -5.83783
H         -0.03755       -0.14499       -5.16090
H          1.03695       -0.91606       -3.04935
C          2.88659       -1.36159        1.72533
C          3.47144       -0.98803        2.96156
C          2.40029       -2.68031        1.54993
C          3.55940       -1.92256        4.01372
H          3.83961        0.02770        3.10907
C          3.05880       -3.23215        3.84720
H          4.00836       -1.62327        4.96232
C          2.47739       -3.60134        2.61404
H          3.12293       -3.95319        4.66340
H          2.09019       -4.61149        2.47155
H          1.95389       -2.97137        0.60250
