67
/cluster/projects/nn2506k/marcof/RuC_BondLength/evolutionary_desing/RUN28052021121055/Gen026/M00000183_I_DFT.out	Energy: -1030479.5176838
Ru        -0.06035        0.07219       -0.04431
C         -0.35534       -0.58143        1.62853
C          1.82929       -0.09914       -0.25769
Cl        -0.88915       -1.79381       -1.30057
Cl        -0.34034        2.40159        0.44789
H          0.37105       -0.96689        2.34603
H         -1.41950       -0.57525        1.94234
N          2.47641        0.32771       -1.45172
N          2.84297       -0.61699        0.58333
C          3.88709        0.09441       -1.43185
C          1.81947        0.95530       -2.60797
C          4.14367       -0.54588       -0.02151
F          4.66372        1.27527       -1.61737
F          4.33935       -0.76322       -2.47920
F          5.07057        0.22605        0.73957
F          4.77687       -1.81758       -0.13186
C          1.73547        2.37784       -2.65602
C          1.37164        0.12542       -3.67749
C          2.34588        3.26600       -1.58319
C          1.07066        2.97422       -3.76601
H          2.65289        2.70797       -0.69827
H          1.63539        4.03060       -1.24957
H          3.24031        3.77771       -1.97275
C          0.96521        4.49328       -3.85186
C          0.50698        2.15669       -4.78872
H          0.93109        4.84326       -4.89018
H          1.81897        4.98752       -3.37518
H          0.05591        4.86379       -3.34730
C         -0.31545        2.79597       -5.90374
C          0.71011        0.74576       -4.77677
H          0.31445        3.09844       -6.75845
H         -0.84059        3.69219       -5.55341
H         -1.07736        2.10840       -6.28821
C          0.22149       -0.10876       -5.94199
H          0.83518       -1.00626       -6.07440
H          0.24821        0.44071       -6.89057
H         -0.81710       -0.44890       -5.78603
C          1.59964       -1.37798       -3.69070
H          1.93960       -1.76074       -2.72838
H          2.36617       -1.64211       -4.43657
H          0.67996       -1.91770       -3.94311
C          2.73341       -1.18395        1.92775
C          2.55271       -2.59019        2.06029
C          2.88730       -0.31558        3.04609
C          2.34389       -3.48712        0.84834
C          2.53836       -3.14440        3.37368
H          2.18404       -2.91922       -0.06917
H          1.46433       -4.13176        0.98319
H          3.21397       -4.14013        0.68134
C          2.38786       -4.65020        3.56545
C          2.67347       -2.29465        4.51145
H          3.05409       -5.02184        4.35535
H          2.62640       -5.20826        2.65536
H          1.35826       -4.92396        3.85382
C          2.60468       -2.89178        5.91325
C          2.87022       -0.89090        4.35023
H          1.96835       -3.78337        5.94684
H          2.20129       -2.17913        6.64160
H          3.60445       -3.19242        6.27234
C          3.07177       -0.00781        5.57761
H          3.72307       -0.49275        6.31695
H          2.11580        0.21329        6.08302
H          3.53200        0.95187        5.32500
C          3.02938        1.19052        2.87565
H          2.32582        1.72800        3.52654
H          2.83012        1.51625        1.85370
H          4.04524        1.52684        3.13307
