101
/cluster/projects/nn2506k/marcof/RuC_BondLength/evolutionary_desing/RUN28052021044948/Gen032/M00000200_I_DFT.out	Energy: -1170113.4328452
Ru         0.24271        0.37923        0.12274
C         -0.12843       -0.39391        1.72261
C          2.17180        0.19504       -0.13158
Cl        -0.59986       -1.34678       -1.33595
Cl         0.28075        2.68268        0.87743
H          0.53763       -0.87532        2.44347
H         -1.20372       -0.34379        2.00049
N          2.79091        0.63507       -1.30955
N          3.16664       -0.21484        0.73850
C          4.30199        0.61279       -1.22018
C          2.16171        0.71345       -2.63688
C          4.57735        0.00615        0.19760
C          4.95060        2.01323       -1.53279
H          4.65490       -0.06683       -2.00328
C          5.49345       -1.28314        0.31654
H          5.03991        0.78032        0.82037
C          6.31562       -1.24585        1.63535
C          6.47158       -1.54572       -0.85904
H          4.82180       -2.14898        0.35755
H          6.87403       -2.18505        1.76572
H          5.68602       -1.11082        2.52146
H          7.05199       -0.42609        1.61227
H          7.20869       -0.74107       -0.97610
H          5.96468       -1.69409       -1.82029
H          7.03045       -2.47055       -0.64948
C          6.41352        1.88469       -2.03286
C          4.86715        3.06625       -0.40055
H          4.37269        2.39754       -2.38544
H          6.76416        2.86008       -2.40276
H          6.50422        1.16597       -2.86123
H          7.10141        1.57498       -1.23264
H          5.14712        4.05359       -0.79660
H          5.56549        2.84607        0.42039
H          3.85925        3.15293        0.02133
C          2.15061       -0.47109       -3.44906
C          1.61090        1.93781       -3.14488
C          2.70863       -1.82284       -3.00423
C          1.54767       -0.41690       -4.71918
C          3.80407       -2.40138       -3.93908
H          1.86824       -2.53262       -2.96613
H          3.09527       -1.76816       -1.98300
H          4.66791       -1.72531       -4.03023
H          3.42056       -2.58023       -4.95282
H          4.16508       -3.36620       -3.54909
C          0.95853        0.76197       -5.22445
H          1.49711       -1.31256       -5.33544
C          1.00473        1.92059       -4.42474
C          0.30881        0.72537       -6.58684
H          0.56470        2.84655       -4.78722
C         -0.44322        1.95582       -7.09340
O          0.37912       -0.31345       -7.30187
H         -1.26811        2.22154       -6.41415
H          0.22123        2.83112       -7.16457
H         -0.85242        1.73931       -8.08648
C          1.61647        3.27317       -2.40624
C          2.28242        4.46507       -3.18120
H          0.57434        3.54425       -2.18338
H          2.08542        3.15498       -1.43161
C          1.29848        5.60117       -3.56031
H          3.07412        4.90189       -2.55106
H          2.78320        4.10112       -4.09298
C          1.97796        6.78211       -4.28766
H          0.80911        5.97075       -2.64277
H          0.49012        5.19951       -4.19554
H          2.76072        7.23910       -3.66089
H          1.24802        7.56865       -4.53558
H          2.45162        6.45599       -5.22793
C          2.97051       -0.72699        2.08592
C          3.14974        0.15171        3.20724
C          2.64544       -2.10814        2.27969
C          3.45536        1.64001        3.02934
C          3.04548       -0.39108        4.50241
C          2.87836        2.58643        4.10810
H          3.07523        1.96815        2.05756
H          4.55227        1.77504        3.00329
H          3.31993        2.42257        5.10131
H          1.78789        2.47657        4.18969
H          3.08632        3.62941        3.82490
C          2.75423       -1.75761        4.72828
H          3.17604        0.24284        5.37518
C          2.54284       -2.58930        3.60708
C          2.66293       -2.23866        6.15779
H          2.27449       -3.63253        3.74969
C          2.41559       -3.71339        6.48322
O          2.77827       -1.41610        7.11108
H          2.60206       -4.40552        5.65599
H          3.05015       -3.99266        7.33527
H          1.36950       -3.83448        6.80931
C          2.31605       -3.06867        1.13439
C          3.03797       -4.44476        1.16964
H          1.22820       -3.25341        1.14658
H          2.51184       -2.58821        0.17180
C          2.66729       -5.33876       -0.03917
H          4.13087       -4.29651        1.19401
H          2.78209       -4.98802        2.09359
C          3.34454       -6.72647       -0.00203
H          2.94333       -4.82388       -0.97568
H          1.57156       -5.46759       -0.07355
H          4.44300       -6.63795       -0.00056
H          3.05901       -7.32915       -0.87828
H          3.05350       -7.29012        0.89893
