71
/cluster/projects/nn2506k/marcof/RuC_BondLength/evolutionary_desing/RUN28052021121055/Gen020/M00000150_I_DFT.out	Energy: -1048107.0710229
Ru         0.10165        0.85478       -0.09454
C         -0.41382        0.25748        1.54119
C          1.92671        0.20734       -0.27112
Cl        -1.27470       -0.56390       -1.47217
Cl         0.72338        3.14286        0.31360
H          0.04926       -0.53992        2.12605
H         -1.35825        0.68536        1.93765
N          2.59390        0.31976       -1.49613
N          2.85213       -0.24769        0.66116
C          4.12270        0.23216       -1.31347
C          1.92144        0.24721       -2.77851
C          4.20002       -0.63885        0.01744
C          4.68517        1.66465       -1.10887
C          4.81776       -0.40546       -2.53547
C          5.40249       -0.27032        0.92126
C          4.24500       -2.17219       -0.22505
H          5.40492        0.77639        1.23317
H          6.33432       -0.46688        0.37301
H          5.41727       -0.90213        1.81964
H          3.38022       -2.53050       -0.78509
H          4.28112       -2.70063        0.73546
H          5.16167       -2.43999       -0.76773
H          4.20577        2.17559       -0.26778
H          4.50842        2.25888       -2.00700
H          5.76914        1.62826       -0.93346
H          4.42721       -1.39460       -2.79062
H          5.89344       -0.50203       -2.33137
H          4.71141        0.25019       -3.40933
C          1.51786        1.35219       -3.59524
C          1.58213       -1.03542       -3.28158
C          0.80609        1.11085       -4.79860
C          1.85608        2.81811       -3.35418
C          0.49750       -0.18372       -5.27039
H          0.49432        1.96585       -5.39804
C         -0.30027       -0.39144       -6.54996
C          0.91198       -1.27640       -4.48287
C         -1.83153       -0.47437       -6.29671
H          0.02846       -1.31819       -7.04667
H         -0.09830        0.43289       -7.25216
H         -2.20920        0.44962       -5.83472
H         -2.07943       -1.30676       -5.62239
H         -2.36752       -0.62821       -7.24605
H          0.69394       -2.30550       -4.76544
C          0.71393        3.83156       -3.36485
O          3.04983        3.19644       -3.25792
H          0.55084        4.19222       -4.39468
H         -0.22614        3.40973       -2.99300
H          1.00085        4.69288       -2.75124
F          1.93149       -2.16851       -2.53108
C          2.68672       -0.29090        2.08929
C          2.37166       -1.47397        2.83614
C          2.95785        0.87083        2.85251
C          2.33945       -1.41874        4.25337
C          1.95455       -2.78160        2.18247
C          2.56868       -0.22943        4.98304
H          2.09201       -2.32316        4.80726
C          2.51354       -0.20900        6.50506
C          2.88319        0.93426        4.25004
C          3.89732       -0.44349        7.17157
H          1.81256       -0.98063        6.85992
H          2.11496        0.75906        6.84683
H          4.31650       -1.42108        6.88956
H          3.80213       -0.41763        8.26786
H          4.62001        0.33133        6.87541
H          3.08076        1.88650        4.74156
C          2.38358       -4.09699        2.84233
O          1.24075       -2.79454        1.14998
H          3.38999       -4.04502        3.27912
H          1.67952       -4.36836        3.64612
H          2.34107       -4.89340        2.08948
F          3.35103        2.03931        2.19402
