78
/cluster/projects/nn2506k/marcof/RuC_BondLength/evolutionary_desing/RUN28052021121055/Gen000/M00000048_I_DFT.out	Energy: -1506004.9198808
Ru        -0.10144       -0.41215       -0.36846
C         -0.48932       -0.68094        1.38814
C          1.81220       -0.05894       -0.34837
Cl        -0.05502       -2.62217       -1.27092
Cl        -1.27943        1.64677       -0.70104
H          0.10603       -0.39810        2.25903
H         -1.49843       -1.09254        1.59082
N          2.47609        0.38421       -1.51121
N          2.80906       -0.26896        0.60855
C          3.94904        0.13782       -1.41172
C          1.79809        0.80627       -2.72138
C          4.22266        0.15622        0.13478
C          4.85986        1.01660       -2.29698
H          4.14506       -0.87309       -1.79168
C          5.29939       -0.88865        0.51069
C          4.62600        1.53615        0.71497
H          5.08733       -1.87438        0.08627
H          5.39359       -0.98416        1.59940
H          6.27097       -0.55686        0.12643
H          3.87825        2.30981        0.52178
H          5.58107        1.85922        0.28387
H          4.78717        1.45928        1.79538
F          4.77163        2.41239       -2.13283
F          6.21523        0.67660       -2.06272
F          4.63098        0.77180       -3.66859
C          1.53913       -0.08173       -3.81804
C          1.38589        2.17827       -2.82692
N          1.93546       -1.53113       -3.85723
C          0.89011        0.35649       -4.98433
O          2.87328       -1.94861       -3.08614
O          1.32217       -2.28734       -4.68758
C          0.50398        1.69795       -5.06018
H          0.69454       -0.33270       -5.79985
N         -0.17474        2.18277       -6.30385
C          0.73997        2.59739       -4.01252
O         -0.36401        1.33719       -7.25100
O         -0.52500        3.41736       -6.35024
H          0.41630        3.62520       -4.12831
C          1.65083        3.18735       -1.70976
C          0.99759        4.58190       -1.85307
H          1.32058        2.75259       -0.76031
H          2.73693        3.32776       -1.62617
C          1.28338        5.47445       -0.62031
H          1.37596        5.09613       -2.75351
H         -0.09226        4.47563       -1.96948
C          0.65051        6.87867       -0.73120
H          2.37513        5.57792       -0.48583
H          0.90301        4.97361        0.28608
H          1.03400        7.42527       -1.60775
H          0.87230        7.48223        0.16260
H         -0.44485        6.81517       -0.82779
C          2.63818       -0.83179        1.92604
C          2.56128        0.00849        3.08360
C          2.64101       -2.25253        2.12632
N          2.43861        1.49704        3.00157
C          2.52827       -0.49378        4.39272
O          3.12220        2.18990        3.84130
O          1.63359        1.99055        2.13540
C          2.51801       -1.88621        4.55238
H          2.49210        0.17292        5.24967
N          2.45551       -2.45538        5.93513
C          2.55775       -2.75034        3.45127
O          2.45273       -3.73368        6.05514
O          2.41115       -1.63057        6.91803
H          2.53077       -3.82158        3.62901
C          2.67696       -3.26451        0.98781
C          3.73046       -4.40122        1.12061
H          1.67944       -3.72734        0.92555
H          2.81033       -2.75849        0.02879
C          3.71212       -5.34572       -0.10693
H          4.74009       -3.97443        1.23964
H          3.53999       -5.00033        2.02571
C          4.74352       -6.49015       -0.00450
H          3.90000       -4.76285       -1.02481
H          2.70126       -5.77290       -0.22071
H          5.77178       -6.10138        0.07189
H          4.69777       -7.13786       -0.89328
H          4.55737       -7.12220        0.87853
