79
/cluster/projects/nn2506k/marcof/RuC_BondLength/evolutionary_desing/RUN28052021121055/Gen000/M00000033_I_DFT.out	Energy: -880018.0283917
Ru        -0.17271       -0.25294       -0.13843
C         -0.37815       -0.75963        1.59377
C          1.76315       -0.09072       -0.33866
Cl        -0.39224       -2.40043       -1.23283
Cl        -0.97228        2.01684        0.07734
H          0.38593       -0.84506        2.37085
H         -1.42207       -0.98918        1.89667
N          2.34859        0.42261       -1.50503
N          2.79404       -0.51938        0.48742
C          3.86838        0.08771       -1.57898
C          1.67100        1.31045       -2.45744
C          4.12885       -0.15826       -0.07057
C          4.70302        1.26187       -2.18899
C          4.03718       -1.22836       -2.41881
H          4.83590       -0.97525        0.10538
H          4.51048        0.73798        0.44079
C          6.16945        1.41960       -1.71002
H          4.69779        1.15009       -3.28387
H          4.19480        2.20683       -1.98453
H          6.63730        2.24729       -2.26602
H          6.78180        0.52576       -1.87569
H          6.23248        1.67782       -0.64269
C          5.44993       -1.85079       -2.52312
H          3.35444       -1.98403       -2.00979
H          3.69102       -1.01384       -3.43635
H          5.37176       -2.82468       -3.03139
H          5.91420       -2.03665       -1.54316
H          6.13812       -1.23274       -3.11500
C          1.63085        2.71369       -2.17216
C          1.10434        0.79562       -3.66429
C          2.20112        3.29124       -0.88388
C          0.99749        3.59516       -3.09314
H          2.62792        2.52029       -0.24382
H          1.41090        3.78876       -0.30691
H          2.98798        4.03609       -1.08250
C          0.91163        5.08857       -2.79269
C          0.41026        3.08703       -4.28678
H          1.67417        5.41827       -2.08050
H         -0.06795        5.34689       -2.35443
H          1.03347        5.69441       -3.70024
C         -0.33491        4.03120       -5.22617
C          0.49622        1.69929       -4.58715
H         -0.83152        4.83818       -4.67447
H         -1.11154        3.51056       -5.79698
H          0.34513        4.50615       -5.95534
C         -0.08028        1.17093       -5.89842
H          0.06581        1.88381       -6.72013
H         -1.16507        0.98177       -5.81811
H          0.38574        0.22902       -6.20478
C          1.08437       -0.69088       -3.98497
H          1.74639       -0.93302       -4.83261
H          0.07313       -1.01519       -4.26382
H          1.37911       -1.29963       -3.13401
C          2.78334       -1.09904        1.82275
C          2.83500       -2.51566        1.97085
C          2.85367       -0.22846        2.95202
C          2.76492       -3.43450        0.76098
C          2.93570       -3.06719        3.28222
H          2.48881       -2.89142       -0.14131
H          2.00608       -4.21652        0.89902
H          3.72849       -3.94113        0.58231
C          3.00936       -4.57971        3.47028
C          2.97057       -2.21110        4.42112
H          2.02689       -5.00215        3.74400
H          3.71272       -4.85451        4.26757
H          3.33558       -5.09329        2.56074
C          3.01058       -2.81353        5.82268
C          2.96312       -0.79501        4.25524
H          2.48250       -3.77331        5.86668
H          2.54261       -2.15528        6.56352
H          4.04636       -2.99727        6.15863
C          3.07277        0.11283        5.47748
H          3.41072        1.12021        5.21500
H          3.78608       -0.28523        6.21145
H          2.10317        0.22141        5.99401
C          2.77451        1.28293        2.78397
H          3.74074        1.76904        2.99885
H          2.03490        1.72064        3.46912
H          2.47100        1.56256        1.77521
