106
/cluster/projects/nn2506k/marcof/RuC_BondLength/evolutionary_desing/RUN28052021121055/Gen000/M00000047_I_DFT.out	Energy: -1288683.3228706
Ru        -0.10182       -0.04814       -0.23631
C         -0.52478       -0.75322        1.38394
C          1.82309       -0.33135       -0.44228
Cl        -0.96676       -1.83615       -1.61566
Cl        -0.21705        2.27307        0.44819
H          0.12518       -1.20334        2.13617
H         -1.60532       -0.68968        1.63635
N          2.48611        0.20075       -1.55993
N          2.76273       -0.99521        0.33168
C          3.96459        0.11182       -1.37231
C          1.83746        1.02943       -2.58388
C          4.16459       -1.09119       -0.35828
C          4.78583        0.13931       -2.68166
H          4.31746        1.02323       -0.86058
C          5.36003       -0.73459        0.59116
C          4.28892       -2.52799       -0.97722
C          5.87378       -1.76516        1.63122
H          5.11723        0.19951        1.11346
H          6.20420       -0.49306       -0.07030
C          7.14094       -1.23443        2.35334
H          5.09670       -1.99099        2.36686
H          6.13046       -2.71436        1.14016
C          7.81436       -2.24357        3.31985
H          7.88466       -0.93883        1.59128
H          6.89042       -0.31314        2.90975
C          7.00131       -2.59083        4.59197
H          8.78721       -1.82467        3.63324
H          8.04522       -3.17446        2.77098
C          7.76128       -3.52588        5.55947
H          6.04652       -3.06423        4.31116
H          6.74188       -1.65526        5.11926
H          7.15883       -3.75003        6.45427
H          8.00982       -4.48414        5.07531
H          8.70518       -3.06905        5.89789
C          5.61673       -2.99832       -1.64036
H          3.46429       -2.66641       -1.68619
H          4.09655       -3.20879       -0.14167
C          5.68862       -4.54337       -1.79890
H          5.74601       -2.54900       -2.63085
H          6.48140       -2.67978       -1.04225
C          4.68919       -5.14450       -2.82042
H          6.71179       -4.79997       -2.12736
H          5.55379       -5.01852       -0.81253
C          4.87824       -6.65921       -3.09719
H          4.79913       -4.59964       -3.77501
H          3.65191       -4.97501       -2.48625
C          4.52855       -7.59014       -1.91234
H          5.92093       -6.84422       -3.41156
H          4.24457       -6.93584       -3.95796
H          3.48811       -7.43595       -1.58252
H          4.63194       -8.64778       -2.20248
H          5.18563       -7.42051       -1.04624
F          4.45094       -0.81400       -3.65609
F          4.69588        1.39874       -3.31734
F          6.17269       -0.02204       -2.41035
C          1.85749        2.44971       -2.44731
C          1.26970        0.39781       -3.73155
C          2.57898        3.13625       -1.29774
C          1.20556        3.24362       -3.43072
H          2.74239        2.46576       -0.45270
H          1.99398        3.97476       -0.90661
H          3.55436        3.53166       -1.62887
C          1.24239        4.76399       -3.31221
C          0.51619        2.62061       -4.51119
H          2.20762        5.11506       -2.92617
H          0.46443        5.13444       -2.62222
H          1.08757        5.25617       -4.27849
C         -0.30270        3.46901       -5.48011
C          0.59183        1.20930       -4.68930
H          0.31988        3.88615       -6.29094
H         -0.77940        4.31399       -4.96794
H         -1.10317        2.88840       -5.95102
C         -0.05393        0.56504       -5.91268
H         -1.13709        0.41535       -5.76158
H          0.37412       -0.41610       -6.13790
H          0.06869        1.18466       -6.81082
C          1.39353       -1.09773       -3.97476
H          0.41369       -1.55966       -4.13835
H          1.85001       -1.61229       -3.13022
H          2.01570       -1.29045       -4.86263
C          2.51769       -1.54751        1.66019
C          2.10379       -2.90664        1.81153
C          2.69364       -0.69860        2.79827
C          1.64998       -3.75035        0.62745
C          2.00590       -3.45245        3.12557
H          1.56833       -3.16486       -0.28695
H          0.65147       -4.16588        0.82375
H          2.31852       -4.60306        0.43382
C          1.62080       -4.91607        3.31671
C          2.23897       -2.63370        4.26811
H          1.81134       -5.51611        2.42156
H          0.54870       -5.02559        3.55661
H          2.18142       -5.37541        4.14138
C          2.10467       -3.24430        5.65959
C          2.56036       -1.25391        4.10610
H          2.97361       -3.87999        5.90282
H          1.21349       -3.88253        5.73463
H          2.02772       -2.48819        6.44573
C          2.76585       -0.37896        5.34075
H          3.50247       -0.82273        6.02740
H          1.82893       -0.25550        5.90845
H          3.12165        0.62363        5.09227
C          2.95312        0.79459        2.64422
H          3.91924        1.09463        3.07827
H          2.17167        1.37634        3.15369
H          2.93773        1.10782        1.60121
