88
/cluster/projects/nn2506k/marcof/RuC_BondLength/evolutionary_desing/RUN28052021121055/Gen000/M00000017_I_DFT.out	Energy: -953957.6605646
Ru         0.11151        0.28656       -0.09567
C         -0.31246       -0.40536        1.52930
C          2.04039       -0.03256       -0.33529
Cl        -0.90318       -1.46794       -1.43304
Cl         0.14111        2.61311        0.60252
H          0.32816       -0.90230        2.26056
H         -1.38269       -0.29003        1.80765
N          2.66178        0.34720       -1.52407
N          3.00418       -0.54553        0.51623
C          4.17730        0.34935       -1.40421
C          1.90030        0.93540       -2.62606
C          4.41343       -0.61325       -0.15575
C          5.00249        0.06903       -2.71947
H          4.45719        1.36510       -1.09270
C          5.54594       -0.10288        0.80647
C          4.72616       -2.09843       -0.59688
C          5.85927        1.40791        0.92514
H          5.32519       -0.50131        1.80487
H          6.47825       -0.59610        0.50169
H          6.53722        1.56229        1.77978
H          4.97331        2.02735        1.09849
H          6.37530        1.79680        0.03753
C          5.37188       -3.07191        0.42283
H          3.80292       -2.54052       -0.98382
H          5.41005       -2.05747       -1.45057
H          5.40534       -4.07922       -0.02260
H          4.82167       -3.14317        1.36545
H          6.40905       -2.79549        0.65942
C          6.54040        0.06248       -2.45919
C          4.77965        1.11592       -3.84977
H          4.71297       -0.91438       -3.11645
H          6.87104       -0.63274       -1.68179
H          6.89520        1.06719       -2.18596
H          7.05630       -0.22083       -3.38883
H          3.77682        1.09071       -4.27762
H          5.49220        0.91582       -4.66486
H          4.97460        2.13743       -3.49022
C          1.73543        2.35047       -2.70754
C          1.38391        0.07028       -3.63801
C          2.44440        3.29600       -1.75048
C          0.92534        2.88936       -3.74855
H          2.81663        2.78357       -0.86321
H          1.77254        4.08192       -1.39116
H          3.29606        3.78698       -2.25250
C          0.74232        4.40066       -3.84785
C          0.28506        2.02203       -4.68024
H          0.47347        4.71906       -4.86107
H          1.65931        4.93775       -3.57520
H         -0.05064        4.75492       -3.16648
C         -0.69879        2.59110       -5.69909
C          0.56346        0.62371       -4.66249
H         -0.18971        2.95915       -6.60723
H         -1.26594        3.43176       -5.28071
H         -1.43017        1.84055       -6.01799
C         -0.03629       -0.28419       -5.73165
H         -0.06983        0.20541       -6.71380
H         -1.06882       -0.57349       -5.47042
H          0.53177       -1.21188       -5.85229
C          1.72629       -1.41152       -3.66178
H          2.29366       -1.70633       -2.77860
H          2.33077       -1.65611       -4.55150
H          0.82265       -2.03106       -3.68782
C          2.74468       -1.15645        1.81919
C          2.32483       -2.52295        1.90837
C          2.91212       -0.37100        3.00236
C          1.84862       -3.29994        0.68834
C          2.28193       -3.14848        3.19012
H          1.80214       -2.68120       -0.20548
H          0.82506       -3.66688        0.84947
H          2.47912       -4.17654        0.47835
C          1.88737       -4.61662        3.32720
C          2.61927       -2.41177        4.36258
H          1.43083       -5.01766        2.41893
H          1.16964       -4.76667        4.14660
H          2.76491       -5.24730        3.55154
C          2.65492       -3.11257        5.71646
C          2.86667       -1.01254        4.27629
H          3.33857       -2.61762        6.41570
H          2.98051       -4.15598        5.62630
H          1.65886       -3.12624        6.19302
C          3.08429       -0.21148        5.55716
H          4.07096       -0.42685        6.00212
H          2.33018       -0.45592        6.31928
H          3.03788        0.86766        5.39022
C          3.03993        1.14314        2.92893
H          3.98269        1.50875        3.36071
H          2.21962        1.61773        3.48730
H          2.96077        1.50409        1.90505
