112
/cluster/projects/nn2506k/marcof/RuC_BondLength/evolutionary_desing/RUN28052021121055/Gen000/M00000032_I_DFT.out	Energy: -1151183.5598644
Ru        -0.07997       -0.22763       -0.34270
C         -0.48152       -0.85040        1.31556
C          1.88237       -0.22169       -0.42162
Cl        -0.43983       -2.26587       -1.60296
Cl        -0.70820        2.07699        0.09631
H          0.19358       -1.09665        2.13843
H         -1.56838       -0.97159        1.51382
N          2.54253        0.27113       -1.54934
N          2.83867       -0.72672        0.44836
C          4.05496        0.30712       -1.33132
C          1.83311        0.92821       -2.64945
C          4.22971       -0.85020       -0.26846
C          4.92771        0.29738       -2.64442
H          4.27370        1.25714       -0.81963
C          5.42261       -0.64335        0.72104
C          4.32111       -2.26989       -0.97981
C          5.85275        0.77107        1.18261
H          6.30363       -1.10354        0.25961
H          5.21216       -1.24902        1.61339
C          6.98440        0.69943        2.24040
H          6.21828        1.36023        0.32761
H          5.01008        1.32510        1.60589
C          7.49275        2.08882        2.69515
H          6.62300        0.13861        3.12043
H          7.83247        0.12062        1.83190
C          8.61479        2.01984        3.75951
H          6.64688        2.67335        3.09944
H          7.86224        2.64839        1.81704
C          9.12192        3.40745        4.21165
H          9.46184        1.43653        3.35702
H          8.24706        1.46238        4.63914
H          8.30875        4.00531        4.65382
H          9.91742        3.31412        4.96790
H          9.53247        3.97841        3.36333
C          5.16332       -3.40656       -0.34014
H          4.72206       -2.12139       -1.98843
H          3.30011       -2.63329       -1.12858
C          5.01412       -4.73705       -1.12177
H          6.23125       -3.13552       -0.33418
H          4.88304       -3.56792        0.70948
C          5.87720       -5.88780       -0.55007
H          3.95445       -5.04489       -1.12804
H          5.28979       -4.57005       -2.17881
C          5.73024       -7.21736       -1.32930
H          5.60661       -6.05743        0.50769
H          6.93950       -5.58384       -0.55150
C          6.59122       -8.36560       -0.75719
H          6.00249       -7.05064       -2.38651
H          4.66918       -7.52307       -1.32908
H          6.31971       -8.58573        0.28787
H          6.45780       -9.29138       -1.33904
H          7.66289       -8.10961       -0.77703
C          6.42454       -0.06969       -2.42117
C          4.91861        1.67434       -3.36942
H          4.50378       -0.44486       -3.33390
H          6.58115       -1.06376       -1.99128
H          6.93023        0.66557       -1.77979
H          6.93666       -0.05523       -3.39519
H          3.92392        1.97883       -3.70031
H          5.56219        1.62179       -4.26086
H          5.32423        2.46409       -2.71730
C          1.57624        2.33174       -2.57877
C          1.45456        0.16860       -3.79833
C          2.12158        3.19012       -1.44875
C          0.82065        2.95030       -3.61445
H          2.50378        2.58961       -0.62425
H          1.34424        3.83859       -1.03154
H          2.94049        3.83513       -1.80974
C          0.53123        4.44565       -3.53706
C          0.32308        2.17382       -4.70038
H          1.37995        5.00209       -3.12000
H         -0.33599        4.64876       -2.88527
H          0.31570        4.87832       -4.52016
C         -0.60553        2.81295       -5.72952
C          0.69024        0.80250       -4.82266
H         -0.04637        3.34536       -6.51888
H         -1.27857        3.54147       -5.26030
H         -1.23769        2.06819       -6.22462
C          0.25139        0.00606       -6.04848
H          0.88726       -0.86712       -6.22377
H          0.27978        0.61491       -6.96174
H         -0.78096       -0.36782       -5.93443
C          1.86858       -1.28490       -3.96664
H          2.56747       -1.39443       -4.81312
H          1.00368       -1.92898       -4.16326
H          2.35173       -1.67182       -3.07158
C          2.64315       -1.07522        1.85237
C          2.45175       -2.43678        2.25217
C          2.65170       -0.03468        2.83406
C          2.03375       -3.50345        1.24898
C          2.52549       -2.76945        3.63834
H          1.09391       -3.97133        1.57823
H          2.76940       -4.31098        1.13978
H          1.83264       -3.07891        0.26738
C          2.41617       -4.22407        4.09096
C          2.68823       -1.74553        4.61718
H          2.14751       -4.89943        3.27522
H          1.66036       -4.34902        4.88102
H          3.37330       -4.58490        4.50356
C          2.84074       -2.10848        6.09157
C          2.65633       -0.37927        4.21827
H          3.54801       -1.43959        6.59953
H          3.20993       -3.13036        6.22680
H          1.88096       -2.03761        6.63227
C          2.62976        0.73251        5.26327
H          3.62279        1.19711        5.39486
H          2.30644        0.37093        6.24474
H          1.93980        1.53585        4.97380
C          2.56613        1.43407        2.45072
H          2.74174        1.59496        1.38875
H          3.27516        2.05267        3.01750
H          1.55740        1.82297        2.65945
