101
/cluster/projects/nn2506k/marcof/RuC_BondLength/evolutionary_desing/RUN28052021044948/Gen010/M00000091_I_DFT.out	Energy: -1076507.3103587
Ru         0.15649        0.55868        0.03567
C         -0.33257       -0.01198        1.68880
C          2.03743        0.05171       -0.15248
Cl        -0.89666       -1.18185       -1.26983
Cl         0.44205        2.90988        0.50992
H          0.25290       -0.54149        2.44311
H         -1.38821        0.21653        1.95255
N          2.72100        0.31999       -1.33439
N          2.93761       -0.55904        0.71650
C          4.12049       -0.16726       -1.31604
C          2.20217        0.92337       -2.55420
C          4.34545       -0.67683        0.13694
H          4.80623        0.64759       -1.57917
H          4.25012       -0.96906       -2.05742
C          4.96782       -2.10461        0.17316
C          5.43670        0.14811        0.89001
C          6.48076       -1.88097       -0.09700
H          4.50451       -2.78537       -0.55173
H          4.82725       -2.53251        1.17381
C          6.78435       -0.41354        0.36297
H          7.09131       -2.61728        0.44537
H          6.71189       -2.00426       -1.16581
H          7.15912        0.18443       -0.48124
H          7.55851       -0.37749        1.14294
H          5.35185       -0.04478        1.96627
H          5.33174        1.22925        0.73230
C          2.30950        2.33387       -2.75401
C          1.69473        0.07904       -3.58999
C          3.04187        3.26999       -1.79797
C          1.75668        2.88246       -3.93526
C          4.40364        3.77839       -2.35771
H          2.40359        4.14110       -1.58953
H          3.20635        2.78479       -0.83081
C          5.13321        4.73072       -1.37955
H          5.05891        2.92045       -2.58892
H          4.23827        4.30069       -3.31450
C          6.48238        5.25249       -1.92217
H          5.30202        4.21130       -0.41931
H          4.47569        5.58748       -1.15075
H          7.17950        4.42402       -2.12827
H          6.96822        5.92642       -1.19881
H          6.34480        5.81312       -2.86067
C          1.15716        2.08657       -4.93398
H          1.79967        3.96465       -4.07352
C          0.50180        2.71512       -6.15653
C          1.16905        0.68536       -4.75229
C         -1.00811        3.03195       -5.94260
H          1.02264        3.64979       -6.42260
H          0.59916        2.03968       -7.02257
C         -1.67719        3.66693       -7.18471
H         -1.53736        2.10246       -5.67362
H         -1.11587        3.70967       -5.07909
C         -3.17504        3.98269       -6.97518
H         -1.56567        2.98620       -8.04755
H         -1.14299        4.59601       -7.45269
H         -3.74571        3.06997       -6.74075
H         -3.61747        4.43233       -7.87840
H         -3.32076        4.68947       -6.14276
H          0.75482        0.04305       -5.53193
C          1.75988       -1.43848       -3.52705
H          2.70960       -1.79815       -3.96084
H          0.94469       -1.88589       -4.10943
H          1.67599       -1.82233       -2.50767
C          2.65490       -1.05173        2.05395
C          2.83290       -0.19105        3.18139
C          2.21096       -2.40316        2.23761
C          3.13904        1.29616        3.07094
C          2.64272       -0.72521        4.47809
H          2.36097        1.87551        3.58975
H          3.16222        1.65116        2.03987
H          4.09983        1.54271        3.54955
C          2.25735       -2.06469        4.69534
H          2.77748       -0.06259        5.33595
C          2.09403       -2.62135        6.10396
C          2.02507       -2.87157        3.55947
C          3.39917       -3.25173        6.67333
H          1.76543       -1.82013        6.78597
H          1.30199       -3.38801        6.11241
C          3.22568       -3.81800        8.10291
H          3.73709       -4.05618        5.99817
H          4.19791       -2.49058        6.67445
C          4.51796       -4.44339        8.67361
H          2.42410       -4.57773        8.09916
H          2.88349       -3.01152        8.77536
H          4.86855       -5.27851        8.04617
H          4.35455       -4.83463        9.69023
H          5.33080       -3.70149        8.72742
H          1.66927       -3.89111        3.70902
C          1.81866       -3.31098        1.06935
C          2.35935       -4.76586        1.11285
H          0.71646       -3.35434        1.03481
H          2.11477       -2.85072        0.12187
C          1.92907       -5.59162       -0.12441
H          3.45992       -4.75612        1.18071
H          1.99920       -5.28155        2.01761
C          2.43933       -7.04931       -0.09507
H          2.29363       -5.09634       -1.04177
H          0.82752       -5.59133       -0.19586
H          3.54014       -7.08867       -0.05884
H          2.11413       -7.60145       -0.99086
H          2.05676       -7.58893        0.78630
