67
/cluster/projects/nn2506k/marcof/RuC_BondLength/evolutionary_desing/RUN28052021044948/Gen000/M00000007_I_DFT.out	Energy: -1400019.1293387
Ru        -0.47089       -0.70125        0.00843
C         -0.90742        0.26262        1.49734
C          1.34426       -0.15067       -0.11155
Cl        -0.47071       -2.92345        0.93840
Cl        -1.76300        0.62408       -1.55404
H         -0.28350        1.04085        1.94648
H         -1.91186        0.09445        1.93073
N          1.96715        0.27205       -1.31929
N          2.37700       -0.14421        0.86632
C          3.38837        0.43076       -1.19791
C          1.33856        0.62828       -2.56955
C          3.63546        0.32683        0.34229
F          3.86591        1.66590       -1.72218
F          4.12141       -0.54428       -1.93700
F          4.00318        1.60607        0.87861
F          4.73150       -0.49660        0.67283
C          1.17075        1.99277       -2.95281
C          1.03121       -0.35150       -3.54235
C          0.75537        2.30745       -4.26011
C          1.34819        3.13534       -1.95911
C          0.47375        1.31220       -5.24673
H          0.62396        3.35296       -4.51359
N          0.06655        1.64664       -6.53382
C          0.61986       -0.04664       -4.84425
C         -0.21477        0.58915       -7.52044
C         -0.13933        3.05517       -6.90949
H         -1.05915       -0.04919       -7.20827
H          0.66519       -0.05388       -7.68572
H         -0.47713        1.04657       -8.48034
H          0.79247        3.64031       -6.82859
H         -0.90996        3.53702       -6.28400
H         -0.47492        3.10820       -7.95064
H          0.40102       -0.87025       -5.51464
C          1.77449        4.50794       -2.48079
O          1.12738        2.96208       -0.73673
H          2.57581        4.43344       -3.22885
H          0.92280        5.03622       -2.93979
H          2.11844        5.10608       -1.62923
N          1.04485       -1.80048       -3.21006
O          1.54461       -2.61459       -4.06267
O          0.49045       -2.17225       -2.10705
C          2.36866       -0.77590        2.16787
C          2.52311       -2.19452        2.32017
C          2.36876       -0.00435        3.36059
C          2.54317       -2.75688        3.61128
C          2.75836       -3.13181        1.13369
C          2.47311       -1.98027        4.80667
H          2.63435       -3.83210        3.69233
N          2.47270       -2.56652        6.06790
C          2.43034       -0.56765        4.64235
C          2.45539       -1.72419        7.27633
C          2.51409       -4.03149        6.21115
H          2.44904       -2.36285        8.16597
H          1.55584       -1.08705        7.31410
H          3.34445       -1.07373        7.33559
H          3.45764       -4.45860        5.82904
H          1.67430       -4.51305        5.68380
H          2.43421       -4.29508        7.27121
H          2.45454        0.10705        5.49049
C          2.74235       -4.64422        1.35737
O          3.01851       -2.68167       -0.00836
H          3.61267       -4.96896        1.95034
H          1.82595       -4.97415        1.86304
H          2.79725       -5.12386        0.37429
N          2.33061        1.49627        3.36901
O          3.13394        2.09022        4.17789
O          1.49086        2.10467        2.61772
