77
/cluster/projects/nn2506k/marcof/RuC_BondLength/evolutionary_desing/RUN28052021044948/Gen000/M00000011_I_DFT.out	Energy: -879273.1401327
Ru         0.00198       -0.27396       -0.01245
C         -0.30944        0.23729        1.70251
C          1.90246        0.10962       -0.26255
Cl        -0.08602       -2.66365        0.33903
Cl        -0.88833        1.65325       -1.17290
H          0.40681        0.59073        2.44838
H         -1.36801        0.15738        2.03007
N          2.77645        0.86563        0.50534
N          2.60683       -0.31295       -1.39777
C          4.14689        0.90465       -0.07045
C          2.59728        1.53219        1.78340
C          3.99762        0.30533       -1.49600
H          4.83420        0.31631        0.55771
H          4.51134        1.93914       -0.08983
C          4.14824        1.39041       -2.61114
C          5.16207       -0.66285       -1.86222
C          5.67682        1.61832       -2.72820
H          3.58956        2.30892       -2.38850
H          3.76451        0.98386       -3.55349
C          6.33328        0.26185       -2.29984
H          5.95711        1.91028       -3.75060
H          6.00793        2.43275       -2.06621
H          7.04165        0.41987       -1.47256
H          6.90422       -0.19351       -3.12203
H          4.84945       -1.29701       -2.70212
H          5.43917       -1.32303       -1.03250
C          2.91285        0.82086        2.97916
C          2.23481        2.90974        1.80251
C          3.30239       -0.65132        2.93404
C          2.82810        1.50386        4.22687
H          3.16187       -1.07852        1.93980
H          2.68945       -1.24779        3.62510
H          4.35517       -0.80171        3.22453
C          3.18054        0.78082        5.52382
C          2.40805        2.86618        4.26800
H          3.76337        1.42410        6.19725
H          3.77310       -0.12203        5.34746
H          2.27636        0.47098        6.07603
C          2.25338        3.57168        5.61202
C          2.13700        3.57411        3.06049
H          1.97412        2.87399        6.41007
H          1.48091        4.34853        5.57812
H          3.19247        4.06221        5.92363
C          1.74059        5.04610        3.12316
H          1.81946        5.54000        2.15067
H          2.37359        5.60602        3.82598
H          0.69708        5.16733        3.46111
C          1.94784        3.66012        0.51008
H          1.97582        2.99923       -0.35673
H          2.67441        4.47365        0.35024
H          0.94623        4.11152        0.52395
C          2.12710       -1.30767       -2.35995
C          2.42731       -2.68508       -2.12185
C          1.42445       -0.89928       -3.53552
C          3.16566       -3.14511       -0.87360
C          1.98783       -3.66228       -3.05840
H          2.58272       -3.90826       -0.34371
H          3.33080       -2.32769       -0.17187
H          4.14521       -3.58430       -1.12164
C          2.28892       -5.13695       -2.81154
C          1.23920       -3.27318       -4.20577
H          3.21251       -5.27952       -2.23957
H          2.40005       -5.69599       -3.74852
H          1.47815       -5.61629       -2.23553
C          0.69120       -4.34308       -5.14617
C          0.98721       -1.89529       -4.46040
H          0.34892       -5.22528       -4.59027
H          1.45516       -4.68831       -5.86484
H         -0.16250       -3.98147       -5.72816
C          0.23511       -1.48688       -5.72486
H          0.57007       -2.06351       -6.59805
H          0.37035       -0.42908       -5.96711
H         -0.85057       -1.65542       -5.61954
C          1.10709        0.56158       -3.81973
H          1.37874        1.21079       -2.98973
H          0.03236        0.70633       -3.98653
H          1.63012        0.91743       -4.72214
