75
/cluster/projects/nn2506k/marcof/RuC_BondLength/evolutionary_desing/RUN28052021044948/Gen013/M00000106_I_DFT.out	Energy: -899370.7759124
Ru         0.09990       -1.09162        0.22095
C         -0.46287       -0.24791        1.72950
C          1.83546       -0.24123       -0.14968
Cl         0.66822       -3.20090        1.27337
Cl        -1.36115       -0.05675       -1.39716
H          0.06231        0.50692        2.32141
H         -1.45819       -0.56534        2.10553
N          2.60887        0.62608        0.61440
N          2.55416       -0.50457       -1.32935
C          3.86707        1.01743       -0.08513
C          2.36038        1.33756        1.85375
C          3.97898        0.03893       -1.28144
H          4.70784        0.92732        0.60999
H          3.79127        2.06596       -0.41448
C          4.51207        0.72484       -2.57146
C          5.07738       -1.04969       -1.04784
C          6.04792        0.82141       -2.35932
H          4.04836        1.69908       -2.75676
H          4.28990        0.08459       -3.43372
C          6.41597       -0.33190       -1.36460
H          6.58402        0.72821       -3.31506
H          6.32481        1.79875       -1.93511
H          6.87392        0.07645       -0.45111
H          7.14551       -1.03228       -1.79669
H          4.92072       -1.86748       -1.76006
H          5.04513       -1.46988       -0.03549
C          3.11612        0.99972        3.03330
C          1.54550        2.50961        1.84700
N          4.04356       -0.08689        3.04588
C          2.97964        1.82690        4.18133
C          5.19273       -0.01008        3.96652
C          3.52687       -1.46672        2.89929
H          5.62658        0.99833        3.95757
H          5.96246       -0.71743        3.62164
H          4.94705       -0.27806        5.01525
H          2.67432       -1.50132        2.22505
H          3.19936       -1.88102        3.87416
H          4.31475       -2.12351        2.50024
C          2.14948        2.96523        4.20013
H          3.52196        1.56114        5.08690
C          2.04178        3.83116        5.44534
C          1.43859        3.28789        3.02402
H          1.08114        4.36370        5.48593
H          2.83986        4.59284        5.46794
H          2.13643        3.23400        6.36387
H          0.80051        4.17243        3.00934
C          0.80699        2.97752        0.60380
H          1.50095        3.17502       -0.22580
H          0.26727        3.91119        0.80826
H          0.07815        2.24005        0.24683
C          2.04808       -1.29378       -2.45085
C          2.12740       -2.72138       -2.41094
C          1.53737       -0.65026       -3.65269
C          2.80680       -3.51429       -1.30307
C          1.61857       -3.49142       -3.48524
H          2.16601       -4.34147       -0.97613
H          3.03971       -2.92471       -0.41831
H          3.74250       -3.95458       -1.68537
C          1.04841       -2.89216       -4.62215
H          1.67610       -4.57886       -3.41692
C          0.43095       -3.72862       -5.73098
C          1.03484       -1.48696       -4.68832
H          0.85459       -4.74262       -5.75649
H          0.58091       -3.27095       -6.72012
H         -0.65705       -3.83203       -5.58100
H          0.57934       -1.01878       -5.55782
N          1.59641        0.74376       -3.91862
C          1.62277        1.20335       -5.31626
C          1.10840        1.78622       -3.00264
H          2.24054        0.53997       -5.93510
H          2.07070        2.20925       -5.34332
H          0.61733        1.27943       -5.77791
H          1.79684        2.64913       -3.00457
H          1.00951        1.40279       -1.99494
H          0.10916        2.14576       -3.30935
