83
/cluster/projects/nn2506k/marcof/RuC_BondLength/evolutionary_desing/RUN28052021121055/Gen015/M00000126_I_DFT.out	Energy: -1146694.8238333
Ru         0.20503        0.85844       -0.07792
C         -0.33439        0.30158        1.56315
C          2.03372        0.20260       -0.27200
Cl        -1.19759       -0.58432       -1.41301
Cl         0.84054        3.14312        0.34820
H          0.10153       -0.48923        2.17559
H         -1.27675        0.75797        1.93348
N          2.67563        0.30733       -1.50789
N          2.96788       -0.24693        0.65022
C          4.22434        0.24326       -1.35103
C          1.94339        0.24174       -2.76082
C          4.31985       -0.65870       -0.01206
C          4.68148        1.73857       -1.15498
C          4.92942       -0.41773       -2.57378
C          5.56389       -0.26198        0.85044
C          4.25735       -2.22051       -0.19467
C          5.96763       -1.10914        2.08464
H          6.41955       -0.27912        0.16209
H          5.45661        0.77737        1.17129
H          6.88993       -0.67802        2.50694
H          6.18721       -2.15467        1.83606
H          5.21732       -1.10249        2.88171
C          5.47526       -3.00482       -0.75612
H          4.08141       -2.61089        0.81443
H          3.36624       -2.47757       -0.77176
H          5.36929       -4.06366       -0.46961
H          6.43944       -2.65781       -0.36206
H          5.53429       -2.97859       -1.84927
C          6.18559        2.12929       -1.16353
H          4.21293        2.28275       -1.97677
H          4.21445        2.13257       -0.24493
H          6.25307        3.20524       -1.39043
H          6.76963        1.60456       -1.93122
H          6.68850        1.97581       -0.20134
C          5.04020        0.36710       -3.90543
H          5.95272       -0.65023       -2.24620
H          4.45244       -1.37934       -2.78519
H          5.63955       -0.23178       -4.61061
H          5.53491        1.33773       -3.79276
H          4.06869        0.54802       -4.37500
C          1.42163        1.34536       -3.51549
C          1.64139       -1.04184       -3.28559
C          0.65917        1.09388       -4.68590
C          1.67280        2.82811       -3.26333
C          0.40595       -0.20032       -5.18858
H          0.25928        1.94552       -5.23533
C         -0.44366       -0.41662       -6.43275
C          0.92405       -1.28768       -4.45831
C         -1.95054       -0.61226       -6.10596
H         -0.08114       -1.30068       -6.98119
H         -0.33409        0.44385       -7.11167
H         -2.52461       -0.76655       -7.03269
H         -2.36284        0.26596       -5.58796
H         -2.10733       -1.48395       -5.45441
H          0.74820       -2.31986       -4.75871
C          0.47214        3.77482       -3.27362
O          2.83832        3.28503       -3.16119
H          0.37133        4.22977       -4.27344
H         -0.46824        3.27570       -3.01593
H          0.66482        4.58389       -2.56021
F          2.07657       -2.18011       -2.58824
C          2.76383       -0.26607        2.07558
C          2.35839       -1.41667        2.83120
C          3.04762        0.89895        2.82962
C          2.26749       -1.32982        4.24417
C          1.91701       -2.72590        2.19518
C          2.51247       -0.13580        4.96073
H          1.96343       -2.21286        4.80442
C          2.32208       -0.06225        6.46966
C          2.91556        0.99541        4.22074
C          0.90020        0.41158        6.88015
H          3.06394        0.62666        6.90362
H          2.51044       -1.05155        6.91582
H          0.12650       -0.27377        6.50297
H          0.68378        1.41419        6.48274
H          0.81329        0.45348        7.97665
H          3.13957        1.94672        4.70256
C          2.28965       -4.03769        2.89589
O          1.22592       -2.74241        1.14760
H          2.24445       -4.84941        2.15964
H          3.28480       -4.00378        3.35918
H          1.55630       -4.27136        3.68519
F          3.52082        2.03811        2.17137
