73
/cluster/projects/nn2506k/marcof/RuC_BondLength/evolutionary_desing/RUN28052021121055/Gen015/M00000128_I_DFT.out	Energy: -1204315.2817284
Ru        -0.05417        0.27777        0.03657
C         -0.48304       -0.79242        1.44086
C          1.84897        0.03023       -0.20682
Cl        -0.95282       -1.07728       -1.73980
Cl        -0.05742        2.37076        1.23829
H          0.16501       -1.42884        2.04584
H         -1.55915       -0.76888        1.71520
N          2.52197        0.65932       -1.27272
N          2.80477       -0.67403        0.53535
C          3.98616        0.42580       -1.23872
C          1.88747        1.18952       -2.49371
C          4.18239       -0.50101       -0.00037
C          4.86312        1.70807       -1.12922
H          4.31569       -0.05338       -2.16962
C          4.93614       -1.81381       -0.36940
H          4.82007       -0.03114        0.76010
F          4.25282       -2.63786       -1.28666
F          6.17931       -1.50551       -0.97208
F          5.23258       -2.59781        0.75777
F          4.57602        2.50139        0.00161
F          6.23111        1.35654       -1.02080
F          4.75849        2.52698       -2.26311
C          1.52281        2.56633       -2.56738
C          1.72810        0.31032       -3.60684
C          1.79918        3.54055       -1.43471
C          0.90158        3.04190       -3.76129
H          2.16919        3.04713       -0.53867
H          0.89077        4.07893       -1.13921
H          2.54593        4.28851       -1.74296
C          0.48500        4.50567       -3.87334
C          0.67462        2.15986       -4.85586
H          1.00625        5.14260       -3.15339
H         -0.59627        4.63064       -3.69014
H          0.69454        4.91000       -4.87259
C         -0.07068        2.65161       -6.09298
C          1.13786        0.81386       -4.79891
H         -0.69260        1.85939       -6.52755
H          0.62304        2.99220       -6.88148
H         -0.73610        3.49002       -5.86177
C          0.97811       -0.10314       -6.00688
H          1.77832       -0.85033       -6.06211
H          0.99641        0.45594       -6.94957
H          0.02287       -0.65529       -5.96901
C          2.14405       -1.15139       -3.54879
H          3.05256       -1.34023       -4.14576
H          1.35218       -1.79493       -3.94986
H          2.32936       -1.49478       -2.53211
C          2.64942       -1.30705        1.84788
C          2.27715       -2.68146        1.91760
C          2.95506       -0.54493        3.01241
C          1.87715       -3.46311        0.67363
C          2.23578       -3.31074        3.19618
H          1.77977       -2.82354       -0.20363
H          0.90551       -3.95658        0.81805
H          2.60878       -4.24956        0.43594
C          1.88015       -4.79036        3.30839
C          2.53315       -2.56359        4.37405
H          2.54178       -5.30709        4.01692
H          1.96663       -5.31154        2.35091
H          0.84607       -4.93654        3.66536
C          2.43667       -3.22798        5.74380
C          2.91156       -1.19254        4.28147
H          2.09479       -2.52420        6.51226
H          3.41546       -3.61803        6.07352
H          1.73655       -4.07014        5.74416
C          3.26848       -0.41759        5.54588
H          2.36600       -0.05323        6.06668
H          3.89092        0.45717        5.33321
H          3.82293       -1.04206        6.25817
C          3.28975        0.93805        2.93050
H          2.69965        1.50951        3.65896
H          3.06258        1.36630        1.95434
H          4.35241        1.13194        3.15238
