 Entering Gaussian System, Link 0=g16
 Initial command:
 /cluster/software/Gaussian/g16_C.01/l1.exe "/cluster/work/users/marcof/2956715/Gau-79102.inp" -scrdir="/cluster/work/users/marcof/2956715/"
 Entering Link 1 = /cluster/software/Gaussian/g16_C.01/l1.exe PID=     79103.
  
 Copyright (c) 1988-2019, Gaussian, Inc.  All Rights Reserved.
  
 This is part of the Gaussian(R) 16 program.  It is based on
 the Gaussian(R) 09 system (copyright 2009, Gaussian, Inc.),
 the Gaussian(R) 03 system (copyright 2003, Gaussian, Inc.),
 the Gaussian(R) 98 system (copyright 1998, Gaussian, Inc.),
 the Gaussian(R) 94 system (copyright 1995, Gaussian, Inc.),
 the Gaussian 92(TM) system (copyright 1992, Gaussian, Inc.),
 the Gaussian 90(TM) system (copyright 1990, Gaussian, Inc.),
 the Gaussian 88(TM) system (copyright 1988, Gaussian, Inc.),
 the Gaussian 86(TM) system (copyright 1986, Carnegie Mellon
 University), and the Gaussian 82(TM) system (copyright 1983,
 Carnegie Mellon University). Gaussian is a federally registered
 trademark of Gaussian, Inc.
  
 This software contains proprietary and confidential information,
 including trade secrets, belonging to Gaussian, Inc.
  
 This software is provided under written license and may be
 used, copied, transmitted, or stored only in accord with that
 written license.
  
 The following legend is applicable only to US Government
 contracts under FAR:
  
                    RESTRICTED RIGHTS LEGEND
  
 Use, reproduction and disclosure by the US Government is
 subject to restrictions as set forth in subparagraphs (a)
 and (c) of the Commercial Computer Software - Restricted
 Rights clause in FAR 52.227-19.
  
 Gaussian, Inc.
 340 Quinnipiac St., Bldg. 40, Wallingford CT 06492
  
  
 ---------------------------------------------------------------
 Warning -- This program may not be used in any manner that
 competes with the business of Gaussian, Inc. or will provide
 assistance to any competitor of Gaussian, Inc.  The licensee
 of this program is prohibited from giving any competitor of
 Gaussian, Inc. access to this program.  By using this program,
 the user acknowledges that Gaussian, Inc. is engaged in the
 business of creating and licensing software in the field of
 computational chemistry and represents and warrants to the
 licensee that it is not a competitor of Gaussian, Inc. and that
 it will not use this program in any manner prohibited above.
 ---------------------------------------------------------------
  

 Cite this work as:
 Gaussian 16, Revision C.01,
 M. J. Frisch, G. W. Trucks, H. B. Schlegel, G. E. Scuseria, 
 M. A. Robb, J. R. Cheeseman, G. Scalmani, V. Barone, 
 G. A. Petersson, H. Nakatsuji, X. Li, M. Caricato, A. V. Marenich, 
 J. Bloino, B. G. Janesko, R. Gomperts, B. Mennucci, H. P. Hratchian, 
 J. V. Ortiz, A. F. Izmaylov, J. L. Sonnenberg, D. Williams-Young, 
 F. Ding, F. Lipparini, F. Egidi, J. Goings, B. Peng, A. Petrone, 
 T. Henderson, D. Ranasinghe, V. G. Zakrzewski, J. Gao, N. Rega, 
 G. Zheng, W. Liang, M. Hada, M. Ehara, K. Toyota, R. Fukuda, 
 J. Hasegawa, M. Ishida, T. Nakajima, Y. Honda, O. Kitao, H. Nakai, 
 T. Vreven, K. Throssell, J. A. Montgomery, Jr., J. E. Peralta, 
 F. Ogliaro, M. J. Bearpark, J. J. Heyd, E. N. Brothers, K. N. Kudin, 
 V. N. Staroverov, T. A. Keith, R. Kobayashi, J. Normand, 
 K. Raghavachari, A. P. Rendell, J. C. Burant, S. S. Iyengar, 
 J. Tomasi, M. Cossi, J. M. Millam, M. Klene, C. Adamo, R. Cammi, 
 J. W. Ochterski, R. L. Martin, K. Morokuma, O. Farkas, 
 J. B. Foresman, and D. J. Fox, Gaussian, Inc., Wallingford CT, 2019.
 
 ******************************************
 Gaussian 16:  ES64L-G16RevC.01  3-Jul-2019
                27-May-2021 
 ******************************************
 %MEM=171000MB
 %NPROCSHARED=40
 Will use up to   40 processors via shared memory.
 %CHK=M00000002_I_DFT
 ----------------------------------------------------------------------
 #P # HF/LANL2MB 5D 7F # NOSYM # SCF=(VSHIFT=1000,NOSYM,NOVARACC,MAXCYC
 LE=180,CONVER=5) # SP
 ----------------------------------------------------------------------
 1/38=1,172=1/1;
 2/12=2,15=1,17=6,18=5,40=1/2;
 3/5=6,6=2,8=11,11=9,25=1,30=1/1,2,3;
 4/9=2/1;
 5/5=2,6=5,7=180,10=1000,38=1/2;
 6/7=2,8=2,9=2,10=2,28=1/1;
 99/5=1,9=1/99;
 Leave Link    1 at Thu May 27 18:28:31 2021, MaxMem= 22413312000 cpu:              38.3 elap:               1.0
 (Enter /cluster/software/Gaussian/g16_C.01/l101.exe)
 -------------------------------------------
 Step 1 - Protocol Denoptim_1.1, 19 Nov 2014
 -------------------------------------------
 Symbolic Z-matrix:
 Charge =  0 Multiplicity = 1
 Ru                    0.        0.        0. 
 C                     0.        0.        1.8211 
 C                     1.9601    0.       -0.2211 
 Cl                   -0.1823   -2.27     -0.7548 
 Cl                   -0.6482    2.2902   -0.4103 
 H                     0.8688    0.1712    2.4731 
 H                    -0.9787   -0.1163    2.3278 
 N                     2.6104    0.6431   -1.2282 
 N                     2.8971   -0.3847    0.6718 
 C                     3.9835    0.9617   -0.8307 
 C                     2.0187    1.1795   -2.4703 
 C                     5.1185    1.0771   -1.8305 
 C                     4.2607   -0.1673    0.1333 
 H                     3.9538    1.8858   -0.2553 
 C                     6.3829    1.3827   -1.0188 
 H                     4.9195    1.878    -2.5408 
 H                     5.236     0.1442   -2.3797 
 C                     6.6112    0.3776    0.1233 
 H                     6.3024    2.3848   -0.6 
 H                     7.2446    1.3678   -1.6847 
 C                     5.4122    0.1848    1.0322 
 H                     6.88     -0.586    -0.307 
 H                     7.4537    0.7165    0.7244 
 H                     5.5984   -0.6167    1.7456 
 H                     5.1999    1.0991    1.5846 
 H                     4.5398   -1.0463   -0.4458 
 C                     1.7327    2.5073   -2.6648 
 C                     1.8507    0.3544   -3.5488 
 C                     2.0312    3.5043   -1.5368 
 C                     1.2067    2.972    -3.8412 
 H                     2.1109    2.9711   -0.5907 
 H                     1.2253    4.2338   -1.4732 
 H                     2.9692    4.0175   -1.7441 
 C                     0.88      4.4655   -3.9774 
 C                     0.9903    2.1189   -4.8651 
 H                     0.9415    4.7581   -5.0245 
 H                     1.5937    5.0485   -3.3972 
 H                    -0.1269    4.6525   -3.6071 
 C                     0.3681    2.6185   -6.1766 
 C                     1.3172    0.8156   -4.7445 
 H                    -0.3252    3.4311   -5.9648 
 H                    -0.1685    1.8027   -6.6587 
 H                     1.1549    2.9763   -6.839 
 C                     1.1183   -0.1491   -5.922 
 H                     1.7662   -1.0154   -5.797 
 H                     1.3682    0.357    -6.8533 
 H                     0.0795   -0.4746   -5.9538 
 C                     2.2051   -1.1369   -3.4731 
 H                     2.5498   -1.3792   -2.469 
 H                     2.9945   -1.3601   -4.1893 
 H                     1.3239   -1.7323   -3.7077 
 C                     2.6943   -1.4132    1.7119 
 C                     2.5746   -2.7535    1.4432 
 C                     2.7488   -1.0578    3.0321 
 C                     2.6463   -3.2277   -0.0148 
 C                     2.4121   -3.6818    2.4373 
 H                     2.5435   -2.373    -0.6816 
 H                     1.8406   -3.9347   -0.2075 
 H                     3.6048   -3.7133   -0.1924 
 C                     2.2512   -5.1612    2.0617 
 C                     2.4038   -3.2897    3.7292 
 H                     2.7674   -5.3572    1.1231 
 H                     1.1936   -5.3947    1.9476 
 H                     2.6772   -5.784     2.847 
 C                     2.1867   -4.3137    4.8521 
 C                     2.589    -1.9917    4.0468 
 H                     1.5789   -5.1377    4.4815 
 H                     1.6761   -3.8356    5.6868 
 H                     3.15     -4.6955    5.1872 
 C                     2.6289   -1.5477    5.5159 
 H                     3.2172   -0.6357    5.6052 
 H                     3.0835   -2.3311    6.1205 
 H                     1.615    -1.3612    5.8669 
 C                     2.9522    0.4032    3.4555 
 H                     2.1867    0.6835    4.1775 
 H                     2.8779    1.049     2.5817 
 H                     3.9364    0.517     3.9076 
 
 ITRead=  0  0  0  0  0  0  0  0  0  0  0  0  0  0  0  0  0  0  0  0
 ITRead=  0  0  0  0  0  0  0  0  0  0  0  0  0  0  0  0  0  0  0  0
 ITRead=  0  0  0  0  0  0  0  0  0  0  0  0  0  0  0  0  0  0  0  0
 ITRead=  0  0  0  0  0  0  0  0  0  0  0  0  0  0  0  0  0
 MicOpt= -1 -1 -1 -1 -1 -1 -1 -1 -1 -1 -1 -1 -1 -1 -1 -1 -1 -1 -1 -1
 MicOpt= -1 -1 -1 -1 -1 -1 -1 -1 -1 -1 -1 -1 -1 -1 -1 -1 -1 -1 -1 -1
 MicOpt= -1 -1 -1 -1 -1 -1 -1 -1 -1 -1 -1 -1 -1 -1 -1 -1 -1 -1 -1 -1
 MicOpt= -1 -1 -1 -1 -1 -1 -1 -1 -1 -1 -1 -1 -1 -1 -1 -1 -1
 NAtoms=     77 NQM=       77 NQMF=       0 NMMI=      0 NMMIF=      0
                NMic=       0 NMicF=      0.
                    Isotopes and Nuclear Properties:
 (Nuclear quadrupole moments (NQMom) in fm**2, nuclear magnetic moments (NMagM)
  in nuclear magnetons)

  Atom         1           2           3           4           5           6           7           8           9          10
 IAtWgt=         102          12          12          35          35           1           1          14          14          12
 AtmWgt= 101.9037000  12.0000000  12.0000000  34.9688527  34.9688527   1.0078250   1.0078250  14.0030740  14.0030740  12.0000000
 NucSpn=           0           0           0           3           3           1           1           2           2           0
 AtZEff=  -0.0000000  -0.0000000  -0.0000000  -0.0000000  -0.0000000  -0.0000000  -0.0000000  -0.0000000  -0.0000000  -0.0000000
 NQMom=    0.0000000   0.0000000   0.0000000  -8.1650000  -8.1650000   0.0000000   0.0000000   2.0440000   2.0440000   0.0000000
 NMagM=    0.0000000   0.0000000   0.0000000   0.8218740   0.8218740   2.7928460   2.7928460   0.4037610   0.4037610   0.0000000
 AtZNuc=  44.0000000   6.0000000   6.0000000  17.0000000  17.0000000   1.0000000   1.0000000   7.0000000   7.0000000   6.0000000

  Atom        11          12          13          14          15          16          17          18          19          20
 IAtWgt=          12          12          12           1          12           1           1          12           1           1
 AtmWgt=  12.0000000  12.0000000  12.0000000   1.0078250  12.0000000   1.0078250   1.0078250  12.0000000   1.0078250   1.0078250
 NucSpn=           0           0           0           1           0           1           1           0           1           1
 AtZEff=  -0.0000000  -0.0000000  -0.0000000  -0.0000000  -0.0000000  -0.0000000  -0.0000000  -0.0000000  -0.0000000  -0.0000000
 NQMom=    0.0000000   0.0000000   0.0000000   0.0000000   0.0000000   0.0000000   0.0000000   0.0000000   0.0000000   0.0000000
 NMagM=    0.0000000   0.0000000   0.0000000   2.7928460   0.0000000   2.7928460   2.7928460   0.0000000   2.7928460   2.7928460
 AtZNuc=   6.0000000   6.0000000   6.0000000   1.0000000   6.0000000   1.0000000   1.0000000   6.0000000   1.0000000   1.0000000

  Atom        21          22          23          24          25          26          27          28          29          30
 IAtWgt=          12           1           1           1           1           1          12          12          12          12
 AtmWgt=  12.0000000   1.0078250   1.0078250   1.0078250   1.0078250   1.0078250  12.0000000  12.0000000  12.0000000  12.0000000
 NucSpn=           0           1           1           1           1           1           0           0           0           0
 AtZEff=  -0.0000000  -0.0000000  -0.0000000  -0.0000000  -0.0000000  -0.0000000  -0.0000000  -0.0000000  -0.0000000  -0.0000000
 NQMom=    0.0000000   0.0000000   0.0000000   0.0000000   0.0000000   0.0000000   0.0000000   0.0000000   0.0000000   0.0000000
 NMagM=    0.0000000   2.7928460   2.7928460   2.7928460   2.7928460   2.7928460   0.0000000   0.0000000   0.0000000   0.0000000
 AtZNuc=   6.0000000   1.0000000   1.0000000   1.0000000   1.0000000   1.0000000   6.0000000   6.0000000   6.0000000   6.0000000

  Atom        31          32          33          34          35          36          37          38          39          40
 IAtWgt=           1           1           1          12          12           1           1           1          12          12
 AtmWgt=   1.0078250   1.0078250   1.0078250  12.0000000  12.0000000   1.0078250   1.0078250   1.0078250  12.0000000  12.0000000
 NucSpn=           1           1           1           0           0           1           1           1           0           0
 AtZEff=  -0.0000000  -0.0000000  -0.0000000  -0.0000000  -0.0000000  -0.0000000  -0.0000000  -0.0000000  -0.0000000  -0.0000000
 NQMom=    0.0000000   0.0000000   0.0000000   0.0000000   0.0000000   0.0000000   0.0000000   0.0000000   0.0000000   0.0000000
 NMagM=    2.7928460   2.7928460   2.7928460   0.0000000   0.0000000   2.7928460   2.7928460   2.7928460   0.0000000   0.0000000
 AtZNuc=   1.0000000   1.0000000   1.0000000   6.0000000   6.0000000   1.0000000   1.0000000   1.0000000   6.0000000   6.0000000

  Atom        41          42          43          44          45          46          47          48          49          50
 IAtWgt=           1           1           1          12           1           1           1          12           1           1
 AtmWgt=   1.0078250   1.0078250   1.0078250  12.0000000   1.0078250   1.0078250   1.0078250  12.0000000   1.0078250   1.0078250
 NucSpn=           1           1           1           0           1           1           1           0           1           1
 AtZEff=  -0.0000000  -0.0000000  -0.0000000  -0.0000000  -0.0000000  -0.0000000  -0.0000000  -0.0000000  -0.0000000  -0.0000000
 NQMom=    0.0000000   0.0000000   0.0000000   0.0000000   0.0000000   0.0000000   0.0000000   0.0000000   0.0000000   0.0000000
 NMagM=    2.7928460   2.7928460   2.7928460   0.0000000   2.7928460   2.7928460   2.7928460   0.0000000   2.7928460   2.7928460
 AtZNuc=   1.0000000   1.0000000   1.0000000   6.0000000   1.0000000   1.0000000   1.0000000   6.0000000   1.0000000   1.0000000

  Atom        51          52          53          54          55          56          57          58          59          60
 IAtWgt=           1          12          12          12          12          12           1           1           1          12
 AtmWgt=   1.0078250  12.0000000  12.0000000  12.0000000  12.0000000  12.0000000   1.0078250   1.0078250   1.0078250  12.0000000
 NucSpn=           1           0           0           0           0           0           1           1           1           0
 AtZEff=  -0.0000000  -0.0000000  -0.0000000  -0.0000000  -0.0000000  -0.0000000  -0.0000000  -0.0000000  -0.0000000  -0.0000000
 NQMom=    0.0000000   0.0000000   0.0000000   0.0000000   0.0000000   0.0000000   0.0000000   0.0000000   0.0000000   0.0000000
 NMagM=    2.7928460   0.0000000   0.0000000   0.0000000   0.0000000   0.0000000   2.7928460   2.7928460   2.7928460   0.0000000
 AtZNuc=   1.0000000   6.0000000   6.0000000   6.0000000   6.0000000   6.0000000   1.0000000   1.0000000   1.0000000   6.0000000

  Atom        61          62          63          64          65          66          67          68          69          70
 IAtWgt=          12           1           1           1          12          12           1           1           1          12
 AtmWgt=  12.0000000   1.0078250   1.0078250   1.0078250  12.0000000  12.0000000   1.0078250   1.0078250   1.0078250  12.0000000
 NucSpn=           0           1           1           1           0           0           1           1           1           0
 AtZEff=  -0.0000000  -0.0000000  -0.0000000  -0.0000000  -0.0000000  -0.0000000  -0.0000000  -0.0000000  -0.0000000  -0.0000000
 NQMom=    0.0000000   0.0000000   0.0000000   0.0000000   0.0000000   0.0000000   0.0000000   0.0000000   0.0000000   0.0000000
 NMagM=    0.0000000   2.7928460   2.7928460   2.7928460   0.0000000   0.0000000   2.7928460   2.7928460   2.7928460   0.0000000
 AtZNuc=   6.0000000   1.0000000   1.0000000   1.0000000   6.0000000   6.0000000   1.0000000   1.0000000   1.0000000   6.0000000

  Atom        71          72          73          74          75          76          77
 IAtWgt=           1           1           1          12           1           1           1
 AtmWgt=   1.0078250   1.0078250   1.0078250  12.0000000   1.0078250   1.0078250   1.0078250
 NucSpn=           1           1           1           0           1           1           1
 AtZEff=  -0.0000000  -0.0000000  -0.0000000  -0.0000000  -0.0000000  -0.0000000  -0.0000000
 NQMom=    0.0000000   0.0000000   0.0000000   0.0000000   0.0000000   0.0000000   0.0000000
 NMagM=    2.7928460   2.7928460   2.7928460   0.0000000   2.7928460   2.7928460   2.7928460
 AtZNuc=   1.0000000   1.0000000   1.0000000   6.0000000   1.0000000   1.0000000   1.0000000
 Leave Link  101 at Thu May 27 18:28:32 2021, MaxMem= 22413312000 cpu:               6.1 elap:               0.8
 (Enter /cluster/software/Gaussian/g16_C.01/l202.exe)
 Symmetry turned off by external request.
 Stoichiometry    C30H42Cl2N2Ru
 Framework group  C1[X(C30H42Cl2N2Ru)]
 Deg. of freedom   225
 Full point group                 C1      NOp   1
                          Input orientation:                          
 ---------------------------------------------------------------------
 Center     Atomic      Atomic             Coordinates (Angstroms)
 Number     Number       Type             X           Y           Z
 ---------------------------------------------------------------------
      1         44           0        0.000000    0.000000    0.000000
      2          6           0        0.000000    0.000000    1.821100
      3          6           0        1.960100    0.000000   -0.221100
      4         17           0       -0.182300   -2.270000   -0.754800
      5         17           0       -0.648200    2.290200   -0.410300
      6          1           0        0.868800    0.171200    2.473100
      7          1           0       -0.978700   -0.116300    2.327800
      8          7           0        2.610400    0.643100   -1.228200
      9          7           0        2.897100   -0.384700    0.671800
     10          6           0        3.983500    0.961700   -0.830700
     11          6           0        2.018700    1.179500   -2.470300
     12          6           0        5.118500    1.077100   -1.830500
     13          6           0        4.260700   -0.167300    0.133300
     14          1           0        3.953800    1.885800   -0.255300
     15          6           0        6.382900    1.382700   -1.018800
     16          1           0        4.919500    1.878000   -2.540800
     17          1           0        5.236000    0.144200   -2.379700
     18          6           0        6.611200    0.377600    0.123300
     19          1           0        6.302400    2.384800   -0.600000
     20          1           0        7.244600    1.367800   -1.684700
     21          6           0        5.412200    0.184800    1.032200
     22          1           0        6.880000   -0.586000   -0.307000
     23          1           0        7.453700    0.716500    0.724400
     24          1           0        5.598400   -0.616700    1.745600
     25          1           0        5.199900    1.099100    1.584600
     26          1           0        4.539800   -1.046300   -0.445800
     27          6           0        1.732700    2.507300   -2.664800
     28          6           0        1.850700    0.354400   -3.548800
     29          6           0        2.031200    3.504300   -1.536800
     30          6           0        1.206700    2.972000   -3.841200
     31          1           0        2.110900    2.971100   -0.590700
     32          1           0        1.225300    4.233800   -1.473200
     33          1           0        2.969200    4.017500   -1.744100
     34          6           0        0.880000    4.465500   -3.977400
     35          6           0        0.990300    2.118900   -4.865100
     36          1           0        0.941500    4.758100   -5.024500
     37          1           0        1.593700    5.048500   -3.397200
     38          1           0       -0.126900    4.652500   -3.607100
     39          6           0        0.368100    2.618500   -6.176600
     40          6           0        1.317200    0.815600   -4.744500
     41          1           0       -0.325200    3.431100   -5.964800
     42          1           0       -0.168500    1.802700   -6.658700
     43          1           0        1.154900    2.976300   -6.839000
     44          6           0        1.118300   -0.149100   -5.922000
     45          1           0        1.766200   -1.015400   -5.797000
     46          1           0        1.368200    0.357000   -6.853300
     47          1           0        0.079500   -0.474600   -5.953800
     48          6           0        2.205100   -1.136900   -3.473100
     49          1           0        2.549800   -1.379200   -2.469000
     50          1           0        2.994500   -1.360100   -4.189300
     51          1           0        1.323900   -1.732300   -3.707700
     52          6           0        2.694300   -1.413200    1.711900
     53          6           0        2.574600   -2.753500    1.443200
     54          6           0        2.748800   -1.057800    3.032100
     55          6           0        2.646300   -3.227700   -0.014800
     56          6           0        2.412100   -3.681800    2.437300
     57          1           0        2.543500   -2.373000   -0.681600
     58          1           0        1.840600   -3.934700   -0.207500
     59          1           0        3.604800   -3.713300   -0.192400
     60          6           0        2.251200   -5.161200    2.061700
     61          6           0        2.403800   -3.289700    3.729200
     62          1           0        2.767400   -5.357200    1.123100
     63          1           0        1.193600   -5.394700    1.947600
     64          1           0        2.677200   -5.784000    2.847000
     65          6           0        2.186700   -4.313700    4.852100
     66          6           0        2.589000   -1.991700    4.046800
     67          1           0        1.578900   -5.137700    4.481500
     68          1           0        1.676100   -3.835600    5.686800
     69          1           0        3.150000   -4.695500    5.187200
     70          6           0        2.628900   -1.547700    5.515900
     71          1           0        3.217200   -0.635700    5.605200
     72          1           0        3.083500   -2.331100    6.120500
     73          1           0        1.615000   -1.361200    5.866900
     74          6           0        2.952200    0.403200    3.455500
     75          1           0        2.186700    0.683500    4.177500
     76          1           0        2.877900    1.049000    2.581700
     77          1           0        3.936400    0.517000    3.907600
 ---------------------------------------------------------------------
 Rotational constants (GHZ):           0.1544989           0.0701659           0.0641522
 Leave Link  202 at Thu May 27 18:28:32 2021, MaxMem= 22413312000 cpu:               0.3 elap:               0.0
 (Enter /cluster/software/Gaussian/g16_C.01/l301.exe)
 Standard basis: LANL2MB (5D, 7F)
 Ernie: Thresh=  0.10000D-02 Tol=  0.10000D-05 Strict=F.
 Ernie:  1 primitive shells out of 348 were deleted.
   223 basis functions,   679 primitive gaussians,   224 cartesian basis functions
   133 alpha electrons      133 beta electrons
       nuclear repulsion energy      4247.2368592163 Hartrees.
 IExCor=    0 DFT=F Ex=HF Corr=None ExCW=0 ScaHFX=  1.000000
 ScaDFX=  1.000000  1.000000  1.000000  1.000000 ScalE2=  1.000000  1.000000
 IRadAn=      5 IRanWt=     -1 IRanGd=            0 ICorTp=0 IEmpDi=  4
 NAtoms=   77 NActive=   77 NUniq=   77 SFac= 1.00D+00 NAtFMM=   60 NAOKFM=T Big=T
 Integral buffers will be    131072 words long.
 Raffenetti 1 integral format.
 Two-electron integral symmetry is turned off.
 Leave Link  301 at Thu May 27 18:28:32 2021, MaxMem= 22413312000 cpu:               5.0 elap:               0.2
 (Enter /cluster/software/Gaussian/g16_C.01/l302.exe)
 NPDir=0 NMtPBC=     1 NCelOv=     1 NCel=       1 NClECP=     1 NCelD=      1
         NCelK=      1 NCelE2=     1 NClLst=     1 CellRange=     0.0.
 One-electron integrals computed using PRISM.
   1 Symmetry operations used in ECPInt.
 ECPInt:  NShTT=    6670 NPrTT=   60729 LenC2=    5947 LenP2D=   34555.
 LDataN:  DoStor=T MaxTD1= 5 Len=  102
 NBasis=   223 RedAO= T EigKep=  1.56D-01  NBF=   223
 NBsUse=   223 1.00D-06 EigRej= -1.00D+00 NBFU=   223
 Leave Link  302 at Thu May 27 18:28:33 2021, MaxMem= 22413312000 cpu:              16.4 elap:               0.5
 (Enter /cluster/software/Gaussian/g16_C.01/l303.exe)
 DipDrv:  MaxL=1.
 Leave Link  303 at Thu May 27 18:28:33 2021, MaxMem= 22413312000 cpu:               2.6 elap:               0.1
 (Enter /cluster/software/Gaussian/g16_C.01/l401.exe)
 SCF N**3 symmetry information disabled.
 ExpMin= 2.50D-02 ExpMax= 9.91D+01 ExpMxC= 9.91D+01 IAcc=3 IRadAn=         5 AccDes= 0.00D+00
 Harris functional with IExCor=  205 and IRadAn=       5 diagonalized for initial guess.
 HarFok:  IExCor=  205 AccDes= 0.00D+00 IRadAn=         5 IDoV= 1 UseB2=F ITyADJ=14
 ICtDFT=  3500011 ScaDFX=  1.000000  1.000000  1.000000  1.000000
 Defaulting to unpruned grid for atomic number  44.
 FoFCou: FMM=F IPFlag=           0 FMFlag=      100000 FMFlg1=        2001
         NFxFlg=           0 DoJE=T BraDBF=F KetDBF=T FulRan=T
         wScrn=  0.000000 ICntrl=       500 IOpCl=  0 I1Cent=   200000004 NGrid=           0
         NMat0=    1 NMatS0=      1 NMatT0=    0 NMatD0=    1 NMtDS0=    0 NMtDT0=    0
 Symmetry not used in FoFCou.
 Harris En= -1380.38401103701    
 JPrj=0 DoOrth=F DoCkMO=F.
 Leave Link  401 at Thu May 27 18:28:34 2021, MaxMem= 22413312000 cpu:              39.7 elap:               1.1
 (Enter /cluster/software/Gaussian/g16_C.01/l502.exe)
 Two-electron integral symmetry not used.
 Closed shell SCF:
 Using DIIS extrapolation, IDIIS=  1040.
 NGot= 22413312000 LenX= 22413197244 LenY= 22413146627
 Requested convergence on RMS density matrix=1.00D-05 within 180 cycles.
 Requested convergence on MAX density matrix=1.00D-03.
 Requested convergence on             energy=1.00D-03.
 Virtual orbitals will be shifted by   1.000 hartree.
 No special actions if energy rises.
 Fock matrices will be formed incrementally for  20 cycles.

 Cycle   1  Pass 1  IDiag  1:
 FoFJK:  IHMeth= 1 ICntrl=       0 DoSepK=F KAlg= 0 I1Cent=           0 FoldK=F
 IRaf= 990000000 NMat=       1 IRICut=       1 DoRegI=T DoRafI=F ISym2E= 0 IDoP0=0 IntGTp=1.
 FoFCou: FMM=T IPFlag=           0 FMFlag=      100000 FMFlg1=        2001
         NFxFlg=           0 DoJE=F BraDBF=F KetDBF=F FulRan=T
         wScrn=  0.000000 ICntrl=         0 IOpCl=  0 I1Cent=           0 NGrid=           0
         NMat0=    1 NMatS0=      1 NMatT0=    0 NMatD0=    1 NMtDS0=    0 NMtDT0=    0
 Symmetry not used in FoFCou.
 FMM levels:  10  Number of levels for PrismC:   9
 E= -1375.32889294309    
 DIIS: error= 1.31D-01 at cycle   1 NSaved=   1.
 NSaved= 1 IEnMin= 1 EnMin= -1375.32889294309     IErMin= 1 ErrMin= 1.31D-01
 ErrMax= 1.31D-01  0.00D+00 EMaxC= 1.00D-01 BMatC= 1.17D+00 BMatP= 1.17D+00
 IDIUse=3 WtCom= 0.00D+00 WtEn= 1.00D+00
 Coeff-Com:  0.100D+01
 Coeff-En:   0.100D+01
 Coeff:      0.100D+01
 Gap=     1.010 Goal=   None    Shift=    1.000
 GapD=    1.010 DampG=2.000 DampE=0.125 DampFc=0.2500 IDamp=-1.
 Damping current iteration by 2.50D-01
 RMSDP=4.31D-03 MaxDP=2.74D-01              OVMax= 0.00D+00

 Cycle   2  Pass 1  IDiag  1:
 RMSU=  1.07D-03    CP:  9.98D-01
 E= -1375.69726205366     Delta-E=       -0.368369110569 Rises=F Damp=T
 DIIS: error= 1.05D-01 at cycle   2 NSaved=   2.
 NSaved= 2 IEnMin= 2 EnMin= -1375.69726205366     IErMin= 2 ErrMin= 1.05D-01
 ErrMax= 1.05D-01  0.00D+00 EMaxC= 1.00D-01 BMatC= 7.46D-01 BMatP= 1.17D+00
 IDIUse=3 WtCom= 0.00D+00 WtEn= 1.00D+00
 Coeff-Com: -0.372D+01 0.472D+01
 Coeff-En:   0.000D+00 0.100D+01
 Coeff:      0.000D+00 0.100D+01
 Gap=     0.051 Goal=   None    Shift=    1.000
 RMSDP=5.05D-03 MaxDP=3.45D-01 DE=-3.68D-01 OVMax= 0.00D+00

 Cycle   3  Pass 1  IDiag  1:
 RMSU=  2.91D-03    CP:  9.87D-01  3.00D+00
 E= -1376.55056659941     Delta-E=       -0.853304545753 Rises=F Damp=F
 DIIS: error= 3.43D-02 at cycle   3 NSaved=   3.
 NSaved= 3 IEnMin= 3 EnMin= -1376.55056659941     IErMin= 3 ErrMin= 3.43D-02
 ErrMax= 3.43D-02  0.00D+00 EMaxC= 1.00D-01 BMatC= 8.31D-02 BMatP= 7.46D-01
 IDIUse=3 WtCom= 6.57D-01 WtEn= 3.43D-01
 Coeff-Com: -0.233D+01 0.301D+01 0.324D+00
 Coeff-En:   0.000D+00 0.000D+00 0.100D+01
 Coeff:     -0.153D+01 0.198D+01 0.556D+00
 Gap=     0.421 Goal=   None    Shift=    1.000
 RMSDP=1.09D-03 MaxDP=8.67D-02 DE=-8.53D-01 OVMax= 0.00D+00

 Cycle   4  Pass 1  IDiag  1:
 RMSU=  9.88D-04    CP:  9.88D-01  3.00D+00  8.47D-01
 E= -1376.64917705292     Delta-E=       -0.098610453510 Rises=F Damp=F
 DIIS: error= 1.07D-02 at cycle   4 NSaved=   4.
 NSaved= 4 IEnMin= 4 EnMin= -1376.64917705292     IErMin= 4 ErrMin= 1.07D-02
 ErrMax= 1.07D-02  0.00D+00 EMaxC= 1.00D-01 BMatC= 1.26D-02 BMatP= 8.31D-02
 IDIUse=3 WtCom= 8.93D-01 WtEn= 1.07D-01
 Coeff-Com: -0.271D+00 0.332D+00-0.482D+00 0.142D+01
 Coeff-En:   0.000D+00 0.000D+00 0.000D+00 0.100D+01
 Coeff:     -0.242D+00 0.297D+00-0.431D+00 0.138D+01
 Gap=     0.384 Goal=   None    Shift=    1.000
 RMSDP=4.59D-04 MaxDP=3.23D-02 DE=-9.86D-02 OVMax= 0.00D+00

 Cycle   5  Pass 1  IDiag  1:
 RMSU=  2.62D-04    CP:  9.89D-01  3.00D+00  8.38D-01  1.38D+00
 E= -1376.66871409658     Delta-E=       -0.019537043664 Rises=F Damp=F
 DIIS: error= 6.93D-03 at cycle   5 NSaved=   5.
 NSaved= 5 IEnMin= 5 EnMin= -1376.66871409658     IErMin= 5 ErrMin= 6.93D-03
 ErrMax= 6.93D-03  0.00D+00 EMaxC= 1.00D-01 BMatC= 5.49D-03 BMatP= 1.26D-02
 IDIUse=3 WtCom= 9.31D-01 WtEn= 6.93D-02
 Coeff-Com: -0.112D+00 0.142D+00 0.101D+00-0.185D+01 0.272D+01
 Coeff-En:   0.000D+00 0.000D+00 0.000D+00 0.000D+00 0.100D+01
 Coeff:     -0.104D+00 0.132D+00 0.942D-01-0.172D+01 0.260D+01
 Gap=     0.367 Goal=   None    Shift=    1.000
 RMSDP=4.29D-04 MaxDP=3.09D-02 DE=-1.95D-02 OVMax= 0.00D+00

 Cycle   6  Pass 1  IDiag  1:
 RMSU=  1.02D-04    CP:  9.89D-01  3.00D+00  8.38D-01  1.69D+00  2.08D+00
 E= -1376.68141721427     Delta-E=       -0.012703117690 Rises=F Damp=F
 DIIS: error= 5.04D-03 at cycle   6 NSaved=   6.
 NSaved= 6 IEnMin= 6 EnMin= -1376.68141721427     IErMin= 6 ErrMin= 5.04D-03
 ErrMax= 5.04D-03  0.00D+00 EMaxC= 1.00D-01 BMatC= 2.53D-03 BMatP= 5.49D-03
 IDIUse=3 WtCom= 9.50D-01 WtEn= 5.04D-02
 Coeff-Com: -0.915D-01 0.113D+00 0.109D+00 0.803D-01-0.250D+01 0.329D+01
 Coeff-En:   0.000D+00 0.000D+00 0.000D+00 0.000D+00 0.000D+00 0.100D+01
 Coeff:     -0.869D-01 0.107D+00 0.103D+00 0.762D-01-0.237D+01 0.317D+01
 Gap=     0.371 Goal=   None    Shift=    1.000
 RMSDP=3.98D-04 MaxDP=2.94D-02 DE=-1.27D-02 OVMax= 0.00D+00

 Cycle   7  Pass 1  IDiag  1:
 RMSU=  8.14D-05    CP:  9.89D-01  3.00D+00  8.41D-01  1.92D+00  3.00D+00
                    CP:  2.23D+00
 E= -1376.68986886894     Delta-E=       -0.008451654669 Rises=F Damp=F
 DIIS: error= 4.02D-03 at cycle   7 NSaved=   7.
 NSaved= 7 IEnMin= 7 EnMin= -1376.68986886894     IErMin= 7 ErrMin= 4.02D-03
 ErrMax= 4.02D-03  0.00D+00 EMaxC= 1.00D-01 BMatC= 1.23D-03 BMatP= 2.53D-03
 IDIUse=3 WtCom= 9.60D-01 WtEn= 4.02D-02
 Coeff-Com:  0.343D-01-0.505D-01-0.294D-01 0.816D+00-0.995D+00-0.223D+01
 Coeff-Com:  0.345D+01
 Coeff-En:   0.000D+00 0.000D+00 0.000D+00 0.000D+00 0.000D+00 0.000D+00
 Coeff-En:   0.100D+01
 Coeff:      0.330D-01-0.485D-01-0.282D-01 0.784D+00-0.955D+00-0.214D+01
 Coeff:      0.335D+01
 Gap=     0.372 Goal=   None    Shift=    1.000
 RMSDP=3.49D-04 MaxDP=2.64D-02 DE=-8.45D-03 OVMax= 0.00D+00

 Cycle   8  Pass 1  IDiag  1:
 RMSU=  1.74D-04    CP:  9.89D-01  3.00D+00  8.45D-01  2.09D+00  3.00D+00
                    CP:  3.00D+00  3.00D+00
 E= -1376.69528548023     Delta-E=       -0.005416611290 Rises=F Damp=F
 DIIS: error= 3.58D-03 at cycle   8 NSaved=   8.
 NSaved= 8 IEnMin= 8 EnMin= -1376.69528548023     IErMin= 8 ErrMin= 3.58D-03
 ErrMax= 3.58D-03  0.00D+00 EMaxC= 1.00D-01 BMatC= 6.40D-04 BMatP= 1.23D-03
 IDIUse=3 WtCom= 9.64D-01 WtEn= 3.58D-02
 Coeff-Com:  0.114D+00-0.146D+00 0.312D-01-0.264D+00 0.142D+01-0.148D+01
 Coeff-Com: -0.257D+01 0.389D+01
 Coeff-En:   0.000D+00 0.000D+00 0.000D+00 0.000D+00 0.000D+00 0.000D+00
 Coeff-En:   0.000D+00 0.100D+01
 Coeff:      0.110D+00-0.141D+00 0.301D-01-0.254D+00 0.137D+01-0.142D+01
 Coeff:     -0.248D+01 0.379D+01
 Gap=     0.374 Goal=   None    Shift=    1.000
 RMSDP=3.14D-04 MaxDP=2.54D-02 DE=-5.42D-03 OVMax= 0.00D+00

 Cycle   9  Pass 1  IDiag  1:
 RMSU=  1.78D-04    CP:  9.88D-01  3.00D+00  8.50D-01  2.22D+00  3.00D+00
                    CP:  3.00D+00  3.00D+00  2.29D+00
 E= -1376.69877468713     Delta-E=       -0.003489206894 Rises=F Damp=F
 DIIS: error= 3.15D-03 at cycle   9 NSaved=   9.
 NSaved= 9 IEnMin= 9 EnMin= -1376.69877468713     IErMin= 9 ErrMin= 3.15D-03
 ErrMax= 3.15D-03  0.00D+00 EMaxC= 1.00D-01 BMatC= 3.44D-04 BMatP= 6.40D-04
 IDIUse=3 WtCom= 9.69D-01 WtEn= 3.15D-02
 Coeff-Com:  0.505D-01-0.619D-01 0.102D+00-0.535D+00 0.321D+00 0.149D+01
 Coeff-Com: -0.142D+01-0.303D+01 0.409D+01
 Coeff-En:   0.000D+00 0.000D+00 0.000D+00 0.000D+00 0.000D+00 0.000D+00
 Coeff-En:   0.000D+00 0.000D+00 0.100D+01
 Coeff:      0.489D-01-0.600D-01 0.992D-01-0.518D+00 0.311D+00 0.144D+01
 Coeff:     -0.138D+01-0.294D+01 0.399D+01
 Gap=     0.375 Goal=   None    Shift=    1.000
 RMSDP=2.48D-04 MaxDP=2.14D-02 DE=-3.49D-03 OVMax= 0.00D+00

 Cycle  10  Pass 1  IDiag  1:
 RMSU=  6.04D-05    CP:  9.88D-01  3.00D+00  8.53D-01  2.31D+00  3.00D+00
                    CP:  3.00D+00  3.00D+00  3.00D+00  1.85D+00
 E= -1376.70071202286     Delta-E=       -0.001937335735 Rises=F Damp=F
 DIIS: error= 2.51D-03 at cycle  10 NSaved=  10.
 NSaved=10 IEnMin=10 EnMin= -1376.70071202286     IErMin=10 ErrMin= 2.51D-03
 ErrMax= 2.51D-03  0.00D+00 EMaxC= 1.00D-01 BMatC= 2.00D-04 BMatP= 3.44D-04
 IDIUse=3 WtCom= 9.75D-01 WtEn= 2.51D-02
 Coeff-Com:  0.335D-01-0.458D-01 0.206D-01 0.924D-01-0.482D-01-0.605D+00
 Coeff-Com:  0.941D+00 0.129D+01-0.577D+01 0.509D+01
 Coeff-En:   0.000D+00 0.000D+00 0.000D+00 0.000D+00 0.000D+00 0.000D+00
 Coeff-En:   0.000D+00 0.000D+00 0.000D+00 0.100D+01
 Coeff:      0.326D-01-0.446D-01 0.201D-01 0.901D-01-0.469D-01-0.590D+00
 Coeff:      0.918D+00 0.126D+01-0.562D+01 0.498D+01
 Gap=     0.376 Goal=   None    Shift=    1.000
 RMSDP=1.87D-04 MaxDP=1.64D-02 DE=-1.94D-03 OVMax= 0.00D+00

 Cycle  11  Pass 1  IDiag  1:
 RMSU=  3.81D-05    CP:  9.88D-01  3.00D+00  8.56D-01  2.37D+00  3.00D+00
                    CP:  3.00D+00  3.00D+00  3.00D+00  2.52D+00  3.00D+00
 E= -1376.70173039238     Delta-E=       -0.001018369520 Rises=F Damp=F
 DIIS: error= 1.99D-03 at cycle  11 NSaved=  11.
 NSaved=11 IEnMin=11 EnMin= -1376.70173039238     IErMin=11 ErrMin= 1.99D-03
 ErrMax= 1.99D-03  0.00D+00 EMaxC= 1.00D-01 BMatC= 1.24D-04 BMatP= 2.00D-04
 IDIUse=3 WtCom= 9.80D-01 WtEn= 1.99D-02
 Coeff-Com:  0.393D-01-0.530D-01 0.497D-02 0.971D-01 0.285D+00-0.123D+01
 Coeff-Com:  0.464D+00 0.270D+01-0.415D+01 0.124D+00 0.272D+01
 Coeff-En:   0.000D+00 0.000D+00 0.000D+00 0.000D+00 0.000D+00 0.000D+00
 Coeff-En:   0.000D+00 0.000D+00 0.000D+00 0.000D+00 0.100D+01
 Coeff:      0.385D-01-0.520D-01 0.488D-02 0.951D-01 0.279D+00-0.120D+01
 Coeff:      0.454D+00 0.265D+01-0.407D+01 0.122D+00 0.268D+01
 Gap=     0.376 Goal=   None    Shift=    1.000
 RMSDP=1.26D-04 MaxDP=1.11D-02 DE=-1.02D-03 OVMax= 0.00D+00

 Cycle  12  Pass 1  IDiag  1:
 RMSU=  8.42D-05    CP:  9.88D-01  3.00D+00  8.59D-01  2.40D+00  3.00D+00
                    CP:  3.00D+00  3.00D+00  3.00D+00  2.96D+00  3.00D+00
                    CP:  2.04D+00
 E= -1376.70222500208     Delta-E=       -0.000494609700 Rises=F Damp=F
 DIIS: error= 1.57D-03 at cycle  12 NSaved=  12.
 NSaved=12 IEnMin=12 EnMin= -1376.70222500208     IErMin=12 ErrMin= 1.57D-03
 ErrMax= 1.57D-03  0.00D+00 EMaxC= 1.00D-01 BMatC= 7.44D-05 BMatP= 1.24D-04
 IDIUse=3 WtCom= 9.84D-01 WtEn= 1.57D-02
 Coeff-Com:  0.173D-01-0.203D-01 0.241D-01-0.214D+00 0.330D+00 0.283D+00
 Coeff-Com: -0.862D+00-0.575D+00 0.322D+01-0.169D+01-0.503D+01 0.552D+01
 Coeff-En:   0.000D+00 0.000D+00 0.000D+00 0.000D+00 0.000D+00 0.000D+00
 Coeff-En:   0.000D+00 0.000D+00 0.000D+00 0.000D+00 0.000D+00 0.100D+01
 Coeff:      0.170D-01-0.200D-01 0.237D-01-0.210D+00 0.325D+00 0.279D+00
 Coeff:     -0.848D+00-0.566D+00 0.316D+01-0.166D+01-0.495D+01 0.545D+01
 Gap=     0.376 Goal=   None    Shift=    1.000
 RMSDP=8.83D-05 MaxDP=7.43D-03 DE=-4.95D-04 OVMax= 0.00D+00

 Cycle  13  Pass 1  IDiag  1:
 RMSU=  4.65D-05    CP:  9.88D-01  3.00D+00  8.63D-01  2.42D+00  3.00D+00
                    CP:  3.00D+00  3.00D+00  3.00D+00  3.00D+00  3.00D+00
                    CP:  2.76D+00  1.72D+00
 E= -1376.70248274324     Delta-E=       -0.000257741160 Rises=F Damp=F
 DIIS: error= 1.19D-03 at cycle  13 NSaved=  13.
 NSaved=13 IEnMin=13 EnMin= -1376.70248274324     IErMin=13 ErrMin= 1.19D-03
 ErrMax= 1.19D-03  0.00D+00 EMaxC= 1.00D-01 BMatC= 4.21D-05 BMatP= 7.44D-05
 IDIUse=3 WtCom= 9.88D-01 WtEn= 1.19D-02
 Coeff-Com:  0.121D-01-0.146D-01 0.143D-01-0.978D-01 0.107D+00 0.187D+00
 Coeff-Com: -0.326D+00-0.279D+00 0.101D+01-0.388D-01-0.178D+01-0.744D+00
 Coeff-Com:  0.295D+01
 Coeff-En:   0.000D+00 0.000D+00 0.000D+00 0.000D+00 0.000D+00 0.000D+00
 Coeff-En:   0.000D+00 0.000D+00 0.000D+00 0.000D+00 0.000D+00 0.000D+00
 Coeff-En:   0.100D+01
 Coeff:      0.119D-01-0.144D-01 0.141D-01-0.966D-01 0.105D+00 0.185D+00
 Coeff:     -0.322D+00-0.276D+00 0.998D+00-0.384D-01-0.176D+01-0.735D+00
 Coeff:      0.293D+01
 Gap=     0.377 Goal=   None    Shift=    1.000
 RMSDP=6.07D-05 MaxDP=4.91D-03 DE=-2.58D-04 OVMax= 0.00D+00

 Cycle  14  Pass 1  IDiag  1:
 RMSU=  1.07D-05    CP:  9.88D-01  3.00D+00  8.65D-01  2.43D+00  3.00D+00
                    CP:  3.00D+00  3.00D+00  3.00D+00  3.00D+00  3.00D+00
                    CP:  3.00D+00  2.22D+00  1.80D+00
 E= -1376.70261277454     Delta-E=       -0.000130031302 Rises=F Damp=F
 DIIS: error= 8.89D-04 at cycle  14 NSaved=  14.
 NSaved=14 IEnMin=14 EnMin= -1376.70261277454     IErMin=14 ErrMin= 8.89D-04
 ErrMax= 8.89D-04  0.00D+00 EMaxC= 1.00D-01 BMatC= 2.33D-05 BMatP= 4.21D-05
 IDIUse=3 WtCom= 9.91D-01 WtEn= 8.89D-03
 Coeff-Com:  0.639D-02-0.914D-02-0.311D-02 0.671D-01-0.361D-01-0.262D+00
 Coeff-Com:  0.267D+00 0.702D+00-0.178D+01 0.710D+00 0.227D+01-0.171D+01
 Coeff-Com: -0.434D+01 0.510D+01
 Coeff-En:   0.000D+00 0.000D+00 0.000D+00 0.000D+00 0.000D+00 0.000D+00
 Coeff-En:   0.000D+00 0.000D+00 0.000D+00 0.000D+00 0.000D+00 0.000D+00
 Coeff-En:   0.000D+00 0.100D+01
 Coeff:      0.633D-02-0.906D-02-0.308D-02 0.665D-01-0.357D-01-0.260D+00
 Coeff:      0.265D+00 0.696D+00-0.176D+01 0.704D+00 0.225D+01-0.169D+01
 Coeff:     -0.430D+01 0.506D+01
 Gap=     0.377 Goal=   None    Shift=    1.000
 RMSDP=4.38D-05 MaxDP=3.26D-03 DE=-1.30D-04 OVMax= 0.00D+00

 Cycle  15  Pass 1  IDiag  1:
 RMSU=  4.05D-06    CP:  9.88D-01  3.00D+00  8.67D-01  2.43D+00  3.00D+00
                    CP:  3.00D+00  3.00D+00  3.00D+00  3.00D+00  3.00D+00
                    CP:  3.00D+00  2.57D+00  2.38D+00  2.38D+00
 E= -1376.70268023989     Delta-E=       -0.000067465347 Rises=F Damp=F
 DIIS: error= 6.64D-04 at cycle  15 NSaved=  15.
 NSaved=15 IEnMin=15 EnMin= -1376.70268023989     IErMin=15 ErrMin= 6.64D-04
 ErrMax= 6.64D-04  0.00D+00 EMaxC= 1.00D-01 BMatC= 1.32D-05 BMatP= 2.33D-05
 IDIUse=3 WtCom= 9.93D-01 WtEn= 6.64D-03
 Coeff-Com:  0.370D-02-0.466D-02 0.571D-02-0.348D-01 0.729D-01-0.174D-01
 Coeff-Com: -0.160D+00 0.142D+00 0.359D+00-0.521D+00-0.342D+00 0.133D+01
 Coeff-Com: -0.125D+01-0.217D+01 0.358D+01
 Coeff-En:   0.000D+00 0.000D+00 0.000D+00 0.000D+00 0.000D+00 0.000D+00
 Coeff-En:   0.000D+00 0.000D+00 0.000D+00 0.000D+00 0.000D+00 0.000D+00
 Coeff-En:   0.000D+00 0.000D+00 0.100D+01
 Coeff:      0.368D-02-0.463D-02 0.568D-02-0.346D-01 0.724D-01-0.173D-01
 Coeff:     -0.159D+00 0.141D+00 0.357D+00-0.518D+00-0.339D+00 0.133D+01
 Coeff:     -0.124D+01-0.216D+01 0.356D+01
 Gap=     0.376 Goal=   None    Shift=    1.000
 RMSDP=3.13D-05 MaxDP=2.21D-03 DE=-6.75D-05 OVMax= 0.00D+00

 Cycle  16  Pass 1  IDiag  1:
 RMSU=  5.38D-06    CP:  9.88D-01  3.00D+00  8.69D-01  2.44D+00  3.00D+00
                    CP:  3.00D+00  3.00D+00  3.00D+00  3.00D+00  3.00D+00
                    CP:  3.00D+00  2.82D+00  2.78D+00  3.00D+00  2.10D+00
 E= -1376.70271563727     Delta-E=       -0.000035397383 Rises=F Damp=F
 DIIS: error= 4.88D-04 at cycle  16 NSaved=  16.
 NSaved=16 IEnMin=16 EnMin= -1376.70271563727     IErMin=16 ErrMin= 4.88D-04
 ErrMax= 4.88D-04  0.00D+00 EMaxC= 1.00D-01 BMatC= 7.15D-06 BMatP= 1.32D-05
 IDIUse=3 WtCom= 9.95D-01 WtEn= 4.88D-03
 Coeff-Com:  0.947D-03-0.822D-03 0.520D-02-0.449D-01 0.534D-01 0.849D-01
 Coeff-Com: -0.170D+00-0.179D+00 0.754D+00-0.371D+00-0.106D+01 0.108D+01
 Coeff-Com:  0.953D+00-0.147D+01-0.257D+01 0.394D+01
 Coeff-En:   0.000D+00 0.000D+00 0.000D+00 0.000D+00 0.000D+00 0.000D+00
 Coeff-En:   0.000D+00 0.000D+00 0.000D+00 0.000D+00 0.000D+00 0.000D+00
 Coeff-En:   0.000D+00 0.000D+00 0.000D+00 0.100D+01
 Coeff:      0.942D-03-0.818D-03 0.517D-02-0.447D-01 0.531D-01 0.844D-01
 Coeff:     -0.169D+00-0.178D+00 0.750D+00-0.369D+00-0.105D+01 0.107D+01
 Coeff:      0.948D+00-0.147D+01-0.256D+01 0.393D+01
 Gap=     0.376 Goal=   None    Shift=    1.000
 RMSDP=2.27D-05 MaxDP=1.49D-03 DE=-3.54D-05 OVMax= 0.00D+00

 Cycle  17  Pass 1  IDiag  1:
 RMSU=  3.47D-06    CP:  9.88D-01  3.00D+00  8.70D-01  2.44D+00  3.00D+00
                    CP:  3.00D+00  3.00D+00  3.00D+00  3.00D+00  3.00D+00
                    CP:  3.00D+00  3.00D+00  3.00D+00  3.00D+00  3.00D+00
                    CP:  2.63D+00
 E= -1376.70273397420     Delta-E=       -0.000018336923 Rises=F Damp=F
 DIIS: error= 3.56D-04 at cycle  17 NSaved=  17.
 NSaved=17 IEnMin=17 EnMin= -1376.70273397420     IErMin=17 ErrMin= 3.56D-04
 ErrMax= 3.56D-04  0.00D+00 EMaxC= 1.00D-01 BMatC= 3.80D-06 BMatP= 7.15D-06
 IDIUse=3 WtCom= 9.96D-01 WtEn= 3.56D-03
 Coeff-Com:  0.185D-02-0.269D-02-0.375D-02 0.375D-01-0.353D-01-0.986D-01
 Coeff-Com:  0.149D+00 0.195D+00-0.633D+00 0.312D+00 0.801D+00-0.791D+00
 Coeff-Com: -0.131D+01 0.261D+01-0.164D+00-0.512D+01 0.505D+01
 Coeff-En:   0.000D+00 0.000D+00 0.000D+00 0.000D+00 0.000D+00 0.000D+00
 Coeff-En:   0.000D+00 0.000D+00 0.000D+00 0.000D+00 0.000D+00 0.000D+00
 Coeff-En:   0.000D+00 0.000D+00 0.000D+00 0.000D+00 0.100D+01
 Coeff:      0.184D-02-0.268D-02-0.374D-02 0.374D-01-0.352D-01-0.982D-01
 Coeff:      0.149D+00 0.194D+00-0.630D+00 0.311D+00 0.798D+00-0.788D+00
 Coeff:     -0.130D+01 0.260D+01-0.163D+00-0.510D+01 0.503D+01
 Gap=     0.376 Goal=   None    Shift=    1.000
 RMSDP=1.61D-05 MaxDP=9.93D-04 DE=-1.83D-05 OVMax= 0.00D+00

 Cycle  18  Pass 1  IDiag  1:
 RMSU=  1.24D-05    CP:  9.88D-01  3.00D+00  8.71D-01  2.44D+00  3.00D+00
                    CP:  3.00D+00  3.00D+00  3.00D+00  3.00D+00  3.00D+00
                    CP:  3.00D+00  3.00D+00  3.00D+00  3.00D+00  3.00D+00
                    CP:  3.00D+00  3.00D+00
 E= -1376.70274325296     Delta-E=       -0.000009278763 Rises=F Damp=F
 DIIS: error= 2.58D-04 at cycle  18 NSaved=  18.
 NSaved=18 IEnMin=18 EnMin= -1376.70274325296     IErMin=18 ErrMin= 2.58D-04
 ErrMax= 2.58D-04  0.00D+00 EMaxC= 1.00D-01 BMatC= 2.01D-06 BMatP= 3.80D-06
 IDIUse=3 WtCom= 9.97D-01 WtEn= 2.58D-03
 Coeff-Com:  0.126D-02-0.166D-02 0.205D-03 0.384D-02-0.209D-02-0.185D-01
 Coeff-Com:  0.210D-01 0.316D-01-0.757D-01 0.571D-01 0.272D-01 0.331D-01
 Coeff-Com: -0.424D+00 0.317D+00 0.550D+00-0.320D+00-0.307D+01 0.387D+01
 Coeff-En:   0.000D+00 0.000D+00 0.000D+00 0.000D+00 0.000D+00 0.000D+00
 Coeff-En:   0.000D+00 0.000D+00 0.000D+00 0.000D+00 0.000D+00 0.000D+00
 Coeff-En:   0.000D+00 0.000D+00 0.000D+00 0.000D+00 0.000D+00 0.100D+01
 Coeff:      0.125D-02-0.165D-02 0.205D-03 0.383D-02-0.209D-02-0.184D-01
 Coeff:      0.209D-01 0.315D-01-0.755D-01 0.569D-01 0.271D-01 0.331D-01
 Coeff:     -0.423D+00 0.317D+00 0.549D+00-0.319D+00-0.306D+01 0.386D+01
 Gap=     0.376 Goal=   None    Shift=    1.000
 RMSDP=1.11D-05 MaxDP=6.73D-04 DE=-9.28D-06 OVMax= 0.00D+00

 Cycle  19  Pass 1  IDiag  1:
 RMSU=  4.86D-06    CP:  9.88D-01  3.00D+00  8.71D-01  2.44D+00  3.00D+00
                    CP:  3.00D+00  3.00D+00  3.00D+00  3.00D+00  3.00D+00
                    CP:  3.00D+00  3.00D+00  3.00D+00  3.00D+00  3.00D+00
                    CP:  3.00D+00  3.00D+00  1.78D+00
 E= -1376.70274789800     Delta-E=       -0.000004645046 Rises=F Damp=F
 DIIS: error= 1.87D-04 at cycle  19 NSaved=  19.
 NSaved=19 IEnMin=19 EnMin= -1376.70274789800     IErMin=19 ErrMin= 1.87D-04
 ErrMax= 1.87D-04  0.00D+00 EMaxC= 1.00D-01 BMatC= 1.06D-06 BMatP= 2.01D-06
 IDIUse=3 WtCom= 9.98D-01 WtEn= 1.87D-03
 Coeff-Com:  0.454D-03-0.340D-03 0.341D-02-0.285D-01 0.305D-01 0.604D-01
 Coeff-Com: -0.103D+00-0.127D+00 0.450D+00-0.199D+00-0.644D+00 0.651D+00
 Coeff-Com:  0.784D+00-0.172D+01-0.772D-01 0.357D+01-0.327D+01-0.313D+01
 Coeff-Com:  0.475D+01
 Coeff-En:   0.000D+00 0.000D+00 0.000D+00 0.000D+00 0.000D+00 0.000D+00
 Coeff-En:   0.000D+00 0.000D+00 0.000D+00 0.000D+00 0.000D+00 0.000D+00
 Coeff-En:   0.000D+00 0.000D+00 0.000D+00 0.000D+00 0.000D+00 0.000D+00
 Coeff-En:   0.100D+01
 Coeff:      0.453D-03-0.339D-03 0.341D-02-0.285D-01 0.304D-01 0.603D-01
 Coeff:     -0.103D+00-0.127D+00 0.449D+00-0.199D+00-0.643D+00 0.650D+00
 Coeff:      0.782D+00-0.172D+01-0.770D-01 0.357D+01-0.327D+01-0.312D+01
 Coeff:      0.474D+01
 Gap=     0.376 Goal=   None    Shift=    1.000
 RMSDP=7.71D-06 MaxDP=4.70D-04 DE=-4.65D-06 OVMax= 0.00D+00

 SCF Done:  E(RHF) =  -1376.70274790     A.U. after   19 cycles
            NFock= 19  Conv=0.77D-05     -V/T= 2.0692
 KE= 1.287560799477D+03 PE=-1.166721180385D+04 EE= 4.755711397260D+03
 Leave Link  502 at Thu May 27 18:28:46 2021, MaxMem= 22413312000 cpu:             464.5 elap:              11.9
 (Enter /cluster/software/Gaussian/g16_C.01/l601.exe)
 Copying SCF densities to generalized density rwf, IOpCl= 0 IROHF=0.

 **********************************************************************

            Population analysis using the SCF Density.

 **********************************************************************

 Alpha  occ. eigenvalues --  -15.42955 -15.42279 -11.18098 -11.14766 -11.13313
 Alpha  occ. eigenvalues --  -11.13111 -11.09078 -11.08669 -11.08342 -11.07646
 Alpha  occ. eigenvalues --  -11.07601 -11.07438 -11.06591 -11.05736 -11.05711
 Alpha  occ. eigenvalues --  -11.05448 -11.05249 -11.04929 -11.04518 -11.04434
 Alpha  occ. eigenvalues --  -11.04263 -11.03909 -11.03867 -11.03596 -11.03576
 Alpha  occ. eigenvalues --  -11.03568 -11.03531 -11.03125 -11.03047 -11.02954
 Alpha  occ. eigenvalues --  -11.02336 -11.02316  -3.42982  -2.16977  -2.15838
 Alpha  occ. eigenvalues --   -2.15579  -1.32300  -1.19497  -1.14638  -1.12498
 Alpha  occ. eigenvalues --   -1.11947  -1.04728  -1.03716  -1.02580  -1.01810
 Alpha  occ. eigenvalues --   -1.00201  -0.99715  -0.95302  -0.94271  -0.93204
 Alpha  occ. eigenvalues --   -0.92537  -0.92412  -0.91666  -0.91200  -0.90915
 Alpha  occ. eigenvalues --   -0.90126  -0.88716  -0.86355  -0.84780  -0.84524
 Alpha  occ. eigenvalues --   -0.82913  -0.82385  -0.79433  -0.78348  -0.73137
 Alpha  occ. eigenvalues --   -0.72899  -0.71822  -0.71116  -0.67750  -0.66481
 Alpha  occ. eigenvalues --   -0.66312  -0.65383  -0.63096  -0.62806  -0.62433
 Alpha  occ. eigenvalues --   -0.60445  -0.59195  -0.58097  -0.57599  -0.57066
 Alpha  occ. eigenvalues --   -0.56637  -0.56476  -0.55734  -0.55536  -0.54866
 Alpha  occ. eigenvalues --   -0.54601  -0.54540  -0.53892  -0.53652  -0.53330
 Alpha  occ. eigenvalues --   -0.53077  -0.52385  -0.52280  -0.51803  -0.51650
 Alpha  occ. eigenvalues --   -0.51266  -0.51067  -0.51045  -0.50681  -0.50522
 Alpha  occ. eigenvalues --   -0.50296  -0.49397  -0.49314  -0.49136  -0.48858
 Alpha  occ. eigenvalues --   -0.48239  -0.47642  -0.47334  -0.46960  -0.46692
 Alpha  occ. eigenvalues --   -0.46338  -0.46065  -0.44675  -0.44027  -0.43664
 Alpha  occ. eigenvalues --   -0.43000  -0.42148  -0.41836  -0.40910  -0.40393
 Alpha  occ. eigenvalues --   -0.39856  -0.39351  -0.39217  -0.34454  -0.33639
 Alpha  occ. eigenvalues --   -0.33408  -0.32786  -0.30735  -0.30217  -0.29185
 Alpha  occ. eigenvalues --   -0.27756  -0.27505  -0.25330
 Alpha virt. eigenvalues --    0.12315   0.12581   0.14372   0.21632   0.24517
 Alpha virt. eigenvalues --    0.25561   0.25964   0.26998   0.27815   0.30325
 Alpha virt. eigenvalues --    0.36771   0.40912   0.46157   0.46878   0.48041
 Alpha virt. eigenvalues --    0.49147   0.51234   0.54168   0.55553   0.56923
 Alpha virt. eigenvalues --    0.58334   0.58605   0.59726   0.60834   0.61932
 Alpha virt. eigenvalues --    0.62754   0.63368   0.64543   0.64764   0.65084
 Alpha virt. eigenvalues --    0.65730   0.66568   0.67011   0.67378   0.67600
 Alpha virt. eigenvalues --    0.67846   0.67865   0.68353   0.68860   0.69319
 Alpha virt. eigenvalues --    0.69525   0.69816   0.70188   0.70486   0.70661
 Alpha virt. eigenvalues --    0.70861   0.71435   0.71686   0.71909   0.72051
 Alpha virt. eigenvalues --    0.72233   0.72559   0.72895   0.73044   0.73376
 Alpha virt. eigenvalues --    0.73569   0.73874   0.74108   0.74308   0.74548
 Alpha virt. eigenvalues --    0.74843   0.75179   0.75364   0.75914   0.76035
 Alpha virt. eigenvalues --    0.76439   0.76912   0.77694   0.78276   0.78912
 Alpha virt. eigenvalues --    0.79947   0.80134   0.81174   0.81367   0.82576
 Alpha virt. eigenvalues --    0.83253   0.84779   0.86373   0.87951   0.89004
 Alpha virt. eigenvalues --    0.92106   0.94134   0.96433   0.96685   0.98234
 Alpha virt. eigenvalues --    0.98619   1.15909   1.16398   1.17770   1.18410
          Condensed to atoms (all electrons):
 Mulliken charges:
               1
     1  Ru   0.368278
     2  C    0.015536
     3  C    0.281819
     4  Cl  -0.583092
     5  Cl  -0.586457
     6  H    0.119017
     7  H    0.113075
     8  N   -0.266892
     9  N   -0.271615
    10  C    0.057884
    11  C    0.074212
    12  C   -0.105891
    13  C    0.056777
    14  H    0.072022
    15  C   -0.101109
    16  H    0.073299
    17  H    0.066371
    18  C   -0.102650
    19  H    0.059469
    20  H    0.066771
    21  C   -0.107705
    22  H    0.058697
    23  H    0.065204
    24  H    0.070553
    25  H    0.066674
    26  H    0.071249
    27  C    0.028990
    28  C    0.016091
    29  C   -0.174686
    30  C   -0.000946
    31  H    0.068067
    32  H    0.088102
    33  H    0.048411
    34  C   -0.181036
    35  C    0.008888
    36  H    0.061770
    37  H    0.064266
    38  H    0.075997
    39  C   -0.182204
    40  C   -0.004471
    41  H    0.069617
    42  H    0.068632
    43  H    0.061939
    44  C   -0.182890
    45  H    0.066856
    46  H    0.063069
    47  H    0.070102
    48  C   -0.181518
    49  H    0.061435
    50  H    0.058382
    51  H    0.086226
    52  C    0.069623
    53  C    0.020231
    54  C   -0.001468
    55  C   -0.176337
    56  C   -0.000692
    57  H    0.067699
    58  H    0.098067
    59  H    0.052122
    60  C   -0.181331
    61  C    0.005809
    62  H    0.070941
    63  H    0.075188
    64  H    0.063771
    65  C   -0.182644
    66  C   -0.008637
    67  H    0.071180
    68  H    0.067470
    69  H    0.065725
    70  C   -0.183948
    71  H    0.066735
    72  H    0.069244
    73  H    0.065296
    74  C   -0.189739
    75  H    0.066467
    76  H    0.068898
    77  H    0.069743
 Sum of Mulliken charges =  -0.00000
 Mulliken charges with hydrogens summed into heavy atoms:
               1
     1  Ru   0.368278
     2  C    0.247628
     3  C    0.281819
     4  Cl  -0.583092
     5  Cl  -0.586457
     8  N   -0.266892
     9  N   -0.271615
    10  C    0.129905
    11  C    0.074212
    12  C    0.033780
    13  C    0.128026
    15  C    0.025131
    18  C    0.021251
    21  C    0.029521
    27  C    0.028990
    28  C    0.016091
    29  C    0.029895
    30  C   -0.000946
    34  C    0.020997
    35  C    0.008888
    39  C    0.017984
    40  C   -0.004471
    44  C    0.017136
    48  C    0.024525
    52  C    0.069623
    53  C    0.020231
    54  C   -0.001468
    55  C    0.041551
    56  C   -0.000692
    60  C    0.028569
    61  C    0.005809
    65  C    0.021731
    66  C   -0.008637
    70  C    0.017327
    74  C    0.015369
 Electronic spatial extent (au):  <R**2>=          22695.1034
 Charge=             -0.0000 electrons
 Dipole moment (field-independent basis, Debye):
    X=             10.0395    Y=             -0.2582    Z=              3.9387  Tot=             10.7876
 Quadrupole moment (field-independent basis, Debye-Ang):
   XX=           -198.2183   YY=           -243.3706   ZZ=           -204.6141
   XY=              2.3311   XZ=             -2.4280   YZ=            -11.6565
 Traceless Quadrupole moment (field-independent basis, Debye-Ang):
   XX=             17.1827   YY=            -27.9696   ZZ=             10.7869
   XY=              2.3311   XZ=             -2.4280   YZ=            -11.6565
 Octapole moment (field-independent basis, Debye-Ang**2):
  XXX=          -1262.4545  YYY=             60.8306  ZZZ=            246.1319  XYY=           -427.0709
  XXY=             31.0458  XXZ=             84.1517  XZZ=           -438.5767  YZZ=             27.9210
  YYZ=            102.1338  XYZ=            -14.2477
 Hexadecapole moment (field-independent basis, Debye-Ang**3):
 XXXX=         -10011.6102 YYYY=          -7215.1116 ZZZZ=         -11648.0987 XXXY=            505.9438
 XXXZ=           -307.8977 YYYX=            390.5646 YYYZ=           2497.5231 ZZZX=           -226.8784
 ZZZY=           2481.3267 XXYY=          -2941.4823 XXZZ=          -3737.6301 YYZZ=          -3110.9283
 XXYZ=            868.5096 YYXZ=            -60.2803 ZZXY=            104.9435
 N-N= 4.247236859216D+03 E-N=-1.166721372842D+04  KE= 1.287560799477D+03
 No NMR shielding tensors so no spin-rotation constants.
 Leave Link  601 at Thu May 27 18:28:47 2021, MaxMem= 22413312000 cpu:               7.2 elap:               0.2
 (Enter /cluster/software/Gaussian/g16_C.01/l9999.exe)
 Unable to Open any file for archive entry.
 1\1\GINC-C3-3\SP\RHF\LANL2MB\C30H42Cl2N2Ru1\MARCOF\27-May-2021\0\\#P #
  HF/LANL2MB 5D 7F # NOSYM # SCF=(VSHIFT=1000,NOSYM,NOVARACC,MAXCYCLE=1
 80,CONVER=5) # SP\\Step 1 - Protocol Denoptim_1.1, 19 Nov 2014\\0,1\Ru
 ,0,0.,0.,0.\C,0,0.,0.,1.8211\C,0,1.9601,0.,-0.2211\Cl,0,-0.1823,-2.27,
 -0.7548\Cl,0,-0.6482,2.2902,-0.4103\H,0,0.8688,0.1712,2.4731\H,0,-0.97
 87,-0.1163,2.3278\N,0,2.6104,0.6431,-1.2282\N,0,2.8971,-0.3847,0.6718\
 C,0,3.9835,0.9617,-0.8307\C,0,2.0187,1.1795,-2.4703\C,0,5.1185,1.0771,
 -1.8305\C,0,4.2607,-0.1673,0.1333\H,0,3.9538,1.8858,-0.2553\C,0,6.3829
 ,1.3827,-1.0188\H,0,4.9195,1.878,-2.5408\H,0,5.236,0.1442,-2.3797\C,0,
 6.6112,0.3776,0.1233\H,0,6.3024,2.3848,-0.6\H,0,7.2446,1.3678,-1.6847\
 C,0,5.4122,0.1848,1.0322\H,0,6.88,-0.586,-0.307\H,0,7.4537,0.7165,0.72
 44\H,0,5.5984,-0.6167,1.7456\H,0,5.1999,1.0991,1.5846\H,0,4.5398,-1.04
 63,-0.4458\C,0,1.7327,2.5073,-2.6648\C,0,1.8507,0.3544,-3.5488\C,0,2.0
 312,3.5043,-1.5368\C,0,1.2067,2.972,-3.8412\H,0,2.1109,2.9711,-0.5907\
 H,0,1.2253,4.2338,-1.4732\H,0,2.9692,4.0175,-1.7441\C,0,0.88,4.4655,-3
 .9774\C,0,0.9903,2.1189,-4.8651\H,0,0.9415,4.7581,-5.0245\H,0,1.5937,5
 .0485,-3.3972\H,0,-0.1269,4.6525,-3.6071\C,0,0.3681,2.6185,-6.1766\C,0
 ,1.3172,0.8156,-4.7445\H,0,-0.3252,3.4311,-5.9648\H,0,-0.1685,1.8027,-
 6.6587\H,0,1.1549,2.9763,-6.839\C,0,1.1183,-0.1491,-5.922\H,0,1.7662,-
 1.0154,-5.797\H,0,1.3682,0.357,-6.8533\H,0,0.0795,-0.4746,-5.9538\C,0,
 2.2051,-1.1369,-3.4731\H,0,2.5498,-1.3792,-2.469\H,0,2.9945,-1.3601,-4
 .1893\H,0,1.3239,-1.7323,-3.7077\C,0,2.6943,-1.4132,1.7119\C,0,2.5746,
 -2.7535,1.4432\C,0,2.7488,-1.0578,3.0321\C,0,2.6463,-3.2277,-0.0148\C,
 0,2.4121,-3.6818,2.4373\H,0,2.5435,-2.373,-0.6816\H,0,1.8406,-3.9347,-
 0.2075\H,0,3.6048,-3.7133,-0.1924\C,0,2.2512,-5.1612,2.0617\C,0,2.4038
 ,-3.2897,3.7292\H,0,2.7674,-5.3572,1.1231\H,0,1.1936,-5.3947,1.9476\H,
 0,2.6772,-5.784,2.847\C,0,2.1867,-4.3137,4.8521\C,0,2.589,-1.9917,4.04
 68\H,0,1.5789,-5.1377,4.4815\H,0,1.6761,-3.8356,5.6868\H,0,3.15,-4.695
 5,5.1872\C,0,2.6289,-1.5477,5.5159\H,0,3.2172,-0.6357,5.6052\H,0,3.083
 5,-2.3311,6.1205\H,0,1.615,-1.3612,5.8669\C,0,2.9522,0.4032,3.4555\H,0
 ,2.1867,0.6835,4.1775\H,0,2.8779,1.049,2.5817\H,0,3.9364,0.517,3.9076\
 \Version=ES64L-G16RevC.01\HF=-1376.7027479\RMSD=7.711e-06\Dipole=3.949
 8484,-0.1016011,1.5496213\Quadrupole=12.7749162,-20.794712,8.0197957,1
 .7330824,-1.8051543,-8.6663102\PG=C01 [X(C30H42Cl2N2Ru1)]\\@
 The archive entry for this job was punched.


 BOOKS ARE LIGHTHOUSES ERECTED IN THE GREAT SEA OF TIME.
     -- E.P.WHIPPLE
 Job cpu time:       0 days  0 hours 10 minutes 29.9 seconds.
 Elapsed time:       0 days  0 hours  0 minutes 17.1 seconds.
 File lengths (MBytes):  RWF=     38 Int=      0 D2E=      0 Chk=      4 Scr=      1
 Normal termination of Gaussian 16 at Thu May 27 18:28:48 2021.
 Initial command:
 /cluster/software/Gaussian/g16_C.01/l1.exe "/cluster/work/users/marcof/2956715/Gau-79102.inp" -scrdir="/cluster/work/users/marcof/2956715/"
 Entering Link 1 = /cluster/software/Gaussian/g16_C.01/l1.exe PID=     79499.
  
 Copyright (c) 1988-2019, Gaussian, Inc.  All Rights Reserved.
  
 This is part of the Gaussian(R) 16 program.  It is based on
 the Gaussian(R) 09 system (copyright 2009, Gaussian, Inc.),
 the Gaussian(R) 03 system (copyright 2003, Gaussian, Inc.),
 the Gaussian(R) 98 system (copyright 1998, Gaussian, Inc.),
 the Gaussian(R) 94 system (copyright 1995, Gaussian, Inc.),
 the Gaussian 92(TM) system (copyright 1992, Gaussian, Inc.),
 the Gaussian 90(TM) system (copyright 1990, Gaussian, Inc.),
 the Gaussian 88(TM) system (copyright 1988, Gaussian, Inc.),
 the Gaussian 86(TM) system (copyright 1986, Carnegie Mellon
 University), and the Gaussian 82(TM) system (copyright 1983,
 Carnegie Mellon University). Gaussian is a federally registered
 trademark of Gaussian, Inc.
  
 This software contains proprietary and confidential information,
 including trade secrets, belonging to Gaussian, Inc.
  
 This software is provided under written license and may be
 used, copied, transmitted, or stored only in accord with that
 written license.
  
 The following legend is applicable only to US Government
 contracts under FAR:
  
                    RESTRICTED RIGHTS LEGEND
  
 Use, reproduction and disclosure by the US Government is
 subject to restrictions as set forth in subparagraphs (a)
 and (c) of the Commercial Computer Software - Restricted
 Rights clause in FAR 52.227-19.
  
 Gaussian, Inc.
 340 Quinnipiac St., Bldg. 40, Wallingford CT 06492
  
  
 ---------------------------------------------------------------
 Warning -- This program may not be used in any manner that
 competes with the business of Gaussian, Inc. or will provide
 assistance to any competitor of Gaussian, Inc.  The licensee
 of this program is prohibited from giving any competitor of
 Gaussian, Inc. access to this program.  By using this program,
 the user acknowledges that Gaussian, Inc. is engaged in the
 business of creating and licensing software in the field of
 computational chemistry and represents and warrants to the
 licensee that it is not a competitor of Gaussian, Inc. and that
 it will not use this program in any manner prohibited above.
 ---------------------------------------------------------------
  

 Cite this work as:
 Gaussian 16, Revision C.01,
 M. J. Frisch, G. W. Trucks, H. B. Schlegel, G. E. Scuseria, 
 M. A. Robb, J. R. Cheeseman, G. Scalmani, V. Barone, 
 G. A. Petersson, H. Nakatsuji, X. Li, M. Caricato, A. V. Marenich, 
 J. Bloino, B. G. Janesko, R. Gomperts, B. Mennucci, H. P. Hratchian, 
 J. V. Ortiz, A. F. Izmaylov, J. L. Sonnenberg, D. Williams-Young, 
 F. Ding, F. Lipparini, F. Egidi, J. Goings, B. Peng, A. Petrone, 
 T. Henderson, D. Ranasinghe, V. G. Zakrzewski, J. Gao, N. Rega, 
 G. Zheng, W. Liang, M. Hada, M. Ehara, K. Toyota, R. Fukuda, 
 J. Hasegawa, M. Ishida, T. Nakajima, Y. Honda, O. Kitao, H. Nakai, 
 T. Vreven, K. Throssell, J. A. Montgomery, Jr., J. E. Peralta, 
 F. Ogliaro, M. J. Bearpark, J. J. Heyd, E. N. Brothers, K. N. Kudin, 
 V. N. Staroverov, T. A. Keith, R. Kobayashi, J. Normand, 
 K. Raghavachari, A. P. Rendell, J. C. Burant, S. S. Iyengar, 
 J. Tomasi, M. Cossi, J. M. Millam, M. Klene, C. Adamo, R. Cammi, 
 J. W. Ochterski, R. L. Martin, K. Morokuma, O. Farkas, 
 J. B. Foresman, and D. J. Fox, Gaussian, Inc., Wallingford CT, 2019.
 
 ******************************************
 Gaussian 16:  ES64L-G16RevC.01  3-Jul-2019
                27-May-2021 
 ******************************************
 %NPROCSHARED=40
 Will use up to   40 processors via shared memory.
 %MEM=171000MB
 %CHK=M00000002_I_DFT
 ----------------------------------------------------------------------
 #P # OLYP/LANL2MB 5D 7F # GEOM=CHECK # GUESS=READ # NOSYM # SCF=(VSHIF
 T=1000,NOSYM,NOVARACC,MAXCYCLE=280,CONVER=5) # SP
 ----------------------------------------------------------------------
 1/29=2,38=1,172=1/1;
 2/12=2,15=1,40=1/2;
 3/5=6,6=2,8=11,11=2,14=-4,25=1,30=1,74=2002,116=-2/1,2,3;
 4/5=1,9=2/1;
 5/5=2,6=5,7=280,10=1000,38=6/2;
 6/7=2,8=2,9=2,10=2,28=1/1;
 99/5=1,9=1/99;
 Leave Link    1 at Thu May 27 18:28:52 2021, MaxMem= 22413312000 cpu:             131.3 elap:               3.4
 (Enter /cluster/software/Gaussian/g16_C.01/l101.exe)
 -------------------------------------------
 Step 2 - Protocol Denoptim_1.1, 19 Nov 2014
 -------------------------------------------
 Structure from the checkpoint file:  "M00000002_I_DFT.chk"
 Charge =  0 Multiplicity = 1
 Z-Matrix found in chk file.
 Ru,0,0.,0.,0.
 C,0,0.,0.,1.8211
 C,0,1.9601,0.,-0.2211
 Cl,0,-0.1823,-2.27,-0.7548
 Cl,0,-0.6482,2.2902,-0.4103
 H,0,0.8688,0.1712,2.4731
 H,0,-0.9787,-0.1163,2.3278
 N,0,2.6104,0.6431,-1.2282
 N,0,2.8971,-0.3847,0.6718
 C,0,3.9835,0.9617,-0.8307
 C,0,2.0187,1.1795,-2.4703
 C,0,5.1185,1.0771,-1.8305
 C,0,4.2607,-0.1673,0.1333
 H,0,3.9538,1.8858,-0.2553
 C,0,6.3829,1.3827,-1.0188
 H,0,4.9195,1.878,-2.5408
 H,0,5.236,0.1442,-2.3797
 C,0,6.6112,0.3776,0.1233
 H,0,6.3024,2.3848,-0.6
 H,0,7.2446,1.3678,-1.6847
 C,0,5.4122,0.1848,1.0322
 H,0,6.88,-0.586,-0.307
 H,0,7.4537,0.7165,0.7244
 H,0,5.5984,-0.6167,1.7456
 H,0,5.1999,1.0991,1.5846
 H,0,4.5398,-1.0463,-0.4458
 C,0,1.7327,2.5073,-2.6648
 C,0,1.8507,0.3544,-3.5488
 C,0,2.0312,3.5043,-1.5368
 C,0,1.2067,2.972,-3.8412
 H,0,2.1109,2.9711,-0.5907
 H,0,1.2253,4.2338,-1.4732
 H,0,2.9692,4.0175,-1.7441
 C,0,0.88,4.4655,-3.9774
 C,0,0.9903,2.1189,-4.8651
 H,0,0.9415,4.7581,-5.0245
 H,0,1.5937,5.0485,-3.3972
 H,0,-0.1269,4.6525,-3.6071
 C,0,0.3681,2.6185,-6.1766
 C,0,1.3172,0.8156,-4.7445
 H,0,-0.3252,3.4311,-5.9648
 H,0,-0.1685,1.8027,-6.6587
 H,0,1.1549,2.9763,-6.839
 C,0,1.1183,-0.1491,-5.922
 H,0,1.7662,-1.0154,-5.797
 H,0,1.3682,0.357,-6.8533
 H,0,0.0795,-0.4746,-5.9538
 C,0,2.2051,-1.1369,-3.4731
 H,0,2.5498,-1.3792,-2.469
 H,0,2.9945,-1.3601,-4.1893
 H,0,1.3239,-1.7323,-3.7077
 C,0,2.6943,-1.4132,1.7119
 C,0,2.5746,-2.7535,1.4432
 C,0,2.7488,-1.0578,3.0321
 C,0,2.6463,-3.2277,-0.0148
 C,0,2.4121,-3.6818,2.4373
 H,0,2.5435,-2.373,-0.6816
 H,0,1.8406,-3.9347,-0.2075
 H,0,3.6048,-3.7133,-0.1924
 C,0,2.2512,-5.1612,2.0617
 C,0,2.4038,-3.2897,3.7292
 H,0,2.7674,-5.3572,1.1231
 H,0,1.1936,-5.3947,1.9476
 H,0,2.6772,-5.784,2.847
 C,0,2.1867,-4.3137,4.8521
 C,0,2.589,-1.9917,4.0468
 H,0,1.5789,-5.1377,4.4815
 H,0,1.6761,-3.8356,5.6868
 H,0,3.15,-4.6955,5.1872
 C,0,2.6289,-1.5477,5.5159
 H,0,3.2172,-0.6357,5.6052
 H,0,3.0835,-2.3311,6.1205
 H,0,1.615,-1.3612,5.8669
 C,0,2.9522,0.4032,3.4555
 H,0,2.1867,0.6835,4.1775
 H,0,2.8779,1.049,2.5817
 H,0,3.9364,0.517,3.9076
 Recover connectivity data from disk.
 ITRead=  0  0  0  0  0  0  0  0  0  0  0  0  0  0  0  0  0  0  0  0
 ITRead=  0  0  0  0  0  0  0  0  0  0  0  0  0  0  0  0  0  0  0  0
 ITRead=  0  0  0  0  0  0  0  0  0  0  0  0  0  0  0  0  0  0  0  0
 ITRead=  0  0  0  0  0  0  0  0  0  0  0  0  0  0  0  0  0
 MicOpt= -1 -1 -1 -1 -1 -1 -1 -1 -1 -1 -1 -1 -1 -1 -1 -1 -1 -1 -1 -1
 MicOpt= -1 -1 -1 -1 -1 -1 -1 -1 -1 -1 -1 -1 -1 -1 -1 -1 -1 -1 -1 -1
 MicOpt= -1 -1 -1 -1 -1 -1 -1 -1 -1 -1 -1 -1 -1 -1 -1 -1 -1 -1 -1 -1
 MicOpt= -1 -1 -1 -1 -1 -1 -1 -1 -1 -1 -1 -1 -1 -1 -1 -1 -1
 NAtoms=     77 NQM=       77 NQMF=       0 NMMI=      0 NMMIF=      0
                NMic=       0 NMicF=      0.
                    Isotopes and Nuclear Properties:
 (Nuclear quadrupole moments (NQMom) in fm**2, nuclear magnetic moments (NMagM)
  in nuclear magnetons)

  Atom         1           2           3           4           5           6           7           8           9          10
 IAtWgt=         102          12          12          35          35           1           1          14          14          12
 AtmWgt= 101.9037000  12.0000000  12.0000000  34.9688527  34.9688527   1.0078250   1.0078250  14.0030740  14.0030740  12.0000000
 NucSpn=           0           0           0           3           3           1           1           2           2           0
 AtZEff= 221.7600000   3.6000000   3.6000000 204.0000000 204.0000000   1.0000000   1.0000000   4.5500000   4.5500000   3.6000000
 NQMom=    0.0000000   0.0000000   0.0000000  -8.1650000  -8.1650000   0.0000000   0.0000000   2.0440000   2.0440000   0.0000000
 NMagM=    0.0000000   0.0000000   0.0000000   0.8218740   0.8218740   2.7928460   2.7928460   0.4037610   0.4037610   0.0000000
 AtZNuc=  44.0000000   6.0000000   6.0000000  17.0000000  17.0000000   1.0000000   1.0000000   7.0000000   7.0000000   6.0000000

  Atom        11          12          13          14          15          16          17          18          19          20
 IAtWgt=          12          12          12           1          12           1           1          12           1           1
 AtmWgt=  12.0000000  12.0000000  12.0000000   1.0078250  12.0000000   1.0078250   1.0078250  12.0000000   1.0078250   1.0078250
 NucSpn=           0           0           0           1           0           1           1           0           1           1
 AtZEff=   3.6000000   3.6000000   3.6000000   1.0000000   3.6000000   1.0000000   1.0000000   3.6000000   1.0000000   1.0000000
 NQMom=    0.0000000   0.0000000   0.0000000   0.0000000   0.0000000   0.0000000   0.0000000   0.0000000   0.0000000   0.0000000
 NMagM=    0.0000000   0.0000000   0.0000000   2.7928460   0.0000000   2.7928460   2.7928460   0.0000000   2.7928460   2.7928460
 AtZNuc=   6.0000000   6.0000000   6.0000000   1.0000000   6.0000000   1.0000000   1.0000000   6.0000000   1.0000000   1.0000000

  Atom        21          22          23          24          25          26          27          28          29          30
 IAtWgt=          12           1           1           1           1           1          12          12          12          12
 AtmWgt=  12.0000000   1.0078250   1.0078250   1.0078250   1.0078250   1.0078250  12.0000000  12.0000000  12.0000000  12.0000000
 NucSpn=           0           1           1           1           1           1           0           0           0           0
 AtZEff=   3.6000000   1.0000000   1.0000000   1.0000000   1.0000000   1.0000000   3.6000000   3.6000000   3.6000000   3.6000000
 NQMom=    0.0000000   0.0000000   0.0000000   0.0000000   0.0000000   0.0000000   0.0000000   0.0000000   0.0000000   0.0000000
 NMagM=    0.0000000   2.7928460   2.7928460   2.7928460   2.7928460   2.7928460   0.0000000   0.0000000   0.0000000   0.0000000
 AtZNuc=   6.0000000   1.0000000   1.0000000   1.0000000   1.0000000   1.0000000   6.0000000   6.0000000   6.0000000   6.0000000

  Atom        31          32          33          34          35          36          37          38          39          40
 IAtWgt=           1           1           1          12          12           1           1           1          12          12
 AtmWgt=   1.0078250   1.0078250   1.0078250  12.0000000  12.0000000   1.0078250   1.0078250   1.0078250  12.0000000  12.0000000
 NucSpn=           1           1           1           0           0           1           1           1           0           0
 AtZEff=   1.0000000   1.0000000   1.0000000   3.6000000   3.6000000   1.0000000   1.0000000   1.0000000   3.6000000   3.6000000
 NQMom=    0.0000000   0.0000000   0.0000000   0.0000000   0.0000000   0.0000000   0.0000000   0.0000000   0.0000000   0.0000000
 NMagM=    2.7928460   2.7928460   2.7928460   0.0000000   0.0000000   2.7928460   2.7928460   2.7928460   0.0000000   0.0000000
 AtZNuc=   1.0000000   1.0000000   1.0000000   6.0000000   6.0000000   1.0000000   1.0000000   1.0000000   6.0000000   6.0000000

  Atom        41          42          43          44          45          46          47          48          49          50
 IAtWgt=           1           1           1          12           1           1           1          12           1           1
 AtmWgt=   1.0078250   1.0078250   1.0078250  12.0000000   1.0078250   1.0078250   1.0078250  12.0000000   1.0078250   1.0078250
 NucSpn=           1           1           1           0           1           1           1           0           1           1
 AtZEff=   1.0000000   1.0000000   1.0000000   3.6000000   1.0000000   1.0000000   1.0000000   3.6000000   1.0000000   1.0000000
 NQMom=    0.0000000   0.0000000   0.0000000   0.0000000   0.0000000   0.0000000   0.0000000   0.0000000   0.0000000   0.0000000
 NMagM=    2.7928460   2.7928460   2.7928460   0.0000000   2.7928460   2.7928460   2.7928460   0.0000000   2.7928460   2.7928460
 AtZNuc=   1.0000000   1.0000000   1.0000000   6.0000000   1.0000000   1.0000000   1.0000000   6.0000000   1.0000000   1.0000000

  Atom        51          52          53          54          55          56          57          58          59          60
 IAtWgt=           1          12          12          12          12          12           1           1           1          12
 AtmWgt=   1.0078250  12.0000000  12.0000000  12.0000000  12.0000000  12.0000000   1.0078250   1.0078250   1.0078250  12.0000000
 NucSpn=           1           0           0           0           0           0           1           1           1           0
 AtZEff=   1.0000000   3.6000000   3.6000000   3.6000000   3.6000000   3.6000000   1.0000000   1.0000000   1.0000000   3.6000000
 NQMom=    0.0000000   0.0000000   0.0000000   0.0000000   0.0000000   0.0000000   0.0000000   0.0000000   0.0000000   0.0000000
 NMagM=    2.7928460   0.0000000   0.0000000   0.0000000   0.0000000   0.0000000   2.7928460   2.7928460   2.7928460   0.0000000
 AtZNuc=   1.0000000   6.0000000   6.0000000   6.0000000   6.0000000   6.0000000   1.0000000   1.0000000   1.0000000   6.0000000

  Atom        61          62          63          64          65          66          67          68          69          70
 IAtWgt=          12           1           1           1          12          12           1           1           1          12
 AtmWgt=  12.0000000   1.0078250   1.0078250   1.0078250  12.0000000  12.0000000   1.0078250   1.0078250   1.0078250  12.0000000
 NucSpn=           0           1           1           1           0           0           1           1           1           0
 AtZEff=   3.6000000   1.0000000   1.0000000   1.0000000   3.6000000   3.6000000   1.0000000   1.0000000   1.0000000   3.6000000
 NQMom=    0.0000000   0.0000000   0.0000000   0.0000000   0.0000000   0.0000000   0.0000000   0.0000000   0.0000000   0.0000000
 NMagM=    0.0000000   2.7928460   2.7928460   2.7928460   0.0000000   0.0000000   2.7928460   2.7928460   2.7928460   0.0000000
 AtZNuc=   6.0000000   1.0000000   1.0000000   1.0000000   6.0000000   6.0000000   1.0000000   1.0000000   1.0000000   6.0000000

  Atom        71          72          73          74          75          76          77
 IAtWgt=           1           1           1          12           1           1           1
 AtmWgt=   1.0078250   1.0078250   1.0078250  12.0000000   1.0078250   1.0078250   1.0078250
 NucSpn=           1           1           1           0           1           1           1
 AtZEff=   1.0000000   1.0000000   1.0000000   3.6000000   1.0000000   1.0000000   1.0000000
 NQMom=    0.0000000   0.0000000   0.0000000   0.0000000   0.0000000   0.0000000   0.0000000
 NMagM=    2.7928460   2.7928460   2.7928460   0.0000000   2.7928460   2.7928460   2.7928460
 AtZNuc=   1.0000000   1.0000000   1.0000000   6.0000000   1.0000000   1.0000000   1.0000000
 Leave Link  101 at Thu May 27 18:28:52 2021, MaxMem= 22413312000 cpu:               4.4 elap:               0.2
 (Enter /cluster/software/Gaussian/g16_C.01/l202.exe)
 Symmetry turned off by external request.
 Stoichiometry    C30H42Cl2N2Ru
 Framework group  C1[X(C30H42Cl2N2Ru)]
 Deg. of freedom   225
 Full point group                 C1      NOp   1
                          Input orientation:                          
 ---------------------------------------------------------------------
 Center     Atomic      Atomic             Coordinates (Angstroms)
 Number     Number       Type             X           Y           Z
 ---------------------------------------------------------------------
      1         44           0        0.000000    0.000000    0.000000
      2          6           0        0.000000    0.000000    1.821100
      3          6           0        1.960100    0.000000   -0.221100
      4         17           0       -0.182300   -2.270000   -0.754800
      5         17           0       -0.648200    2.290200   -0.410300
      6          1           0        0.868800    0.171200    2.473100
      7          1           0       -0.978700   -0.116300    2.327800
      8          7           0        2.610400    0.643100   -1.228200
      9          7           0        2.897100   -0.384700    0.671800
     10          6           0        3.983500    0.961700   -0.830700
     11          6           0        2.018700    1.179500   -2.470300
     12          6           0        5.118500    1.077100   -1.830500
     13          6           0        4.260700   -0.167300    0.133300
     14          1           0        3.953800    1.885800   -0.255300
     15          6           0        6.382900    1.382700   -1.018800
     16          1           0        4.919500    1.878000   -2.540800
     17          1           0        5.236000    0.144200   -2.379700
     18          6           0        6.611200    0.377600    0.123300
     19          1           0        6.302400    2.384800   -0.600000
     20          1           0        7.244600    1.367800   -1.684700
     21          6           0        5.412200    0.184800    1.032200
     22          1           0        6.880000   -0.586000   -0.307000
     23          1           0        7.453700    0.716500    0.724400
     24          1           0        5.598400   -0.616700    1.745600
     25          1           0        5.199900    1.099100    1.584600
     26          1           0        4.539800   -1.046300   -0.445800
     27          6           0        1.732700    2.507300   -2.664800
     28          6           0        1.850700    0.354400   -3.548800
     29          6           0        2.031200    3.504300   -1.536800
     30          6           0        1.206700    2.972000   -3.841200
     31          1           0        2.110900    2.971100   -0.590700
     32          1           0        1.225300    4.233800   -1.473200
     33          1           0        2.969200    4.017500   -1.744100
     34          6           0        0.880000    4.465500   -3.977400
     35          6           0        0.990300    2.118900   -4.865100
     36          1           0        0.941500    4.758100   -5.024500
     37          1           0        1.593700    5.048500   -3.397200
     38          1           0       -0.126900    4.652500   -3.607100
     39          6           0        0.368100    2.618500   -6.176600
     40          6           0        1.317200    0.815600   -4.744500
     41          1           0       -0.325200    3.431100   -5.964800
     42          1           0       -0.168500    1.802700   -6.658700
     43          1           0        1.154900    2.976300   -6.839000
     44          6           0        1.118300   -0.149100   -5.922000
     45          1           0        1.766200   -1.015400   -5.797000
     46          1           0        1.368200    0.357000   -6.853300
     47          1           0        0.079500   -0.474600   -5.953800
     48          6           0        2.205100   -1.136900   -3.473100
     49          1           0        2.549800   -1.379200   -2.469000
     50          1           0        2.994500   -1.360100   -4.189300
     51          1           0        1.323900   -1.732300   -3.707700
     52          6           0        2.694300   -1.413200    1.711900
     53          6           0        2.574600   -2.753500    1.443200
     54          6           0        2.748800   -1.057800    3.032100
     55          6           0        2.646300   -3.227700   -0.014800
     56          6           0        2.412100   -3.681800    2.437300
     57          1           0        2.543500   -2.373000   -0.681600
     58          1           0        1.840600   -3.934700   -0.207500
     59          1           0        3.604800   -3.713300   -0.192400
     60          6           0        2.251200   -5.161200    2.061700
     61          6           0        2.403800   -3.289700    3.729200
     62          1           0        2.767400   -5.357200    1.123100
     63          1           0        1.193600   -5.394700    1.947600
     64          1           0        2.677200   -5.784000    2.847000
     65          6           0        2.186700   -4.313700    4.852100
     66          6           0        2.589000   -1.991700    4.046800
     67          1           0        1.578900   -5.137700    4.481500
     68          1           0        1.676100   -3.835600    5.686800
     69          1           0        3.150000   -4.695500    5.187200
     70          6           0        2.628900   -1.547700    5.515900
     71          1           0        3.217200   -0.635700    5.605200
     72          1           0        3.083500   -2.331100    6.120500
     73          1           0        1.615000   -1.361200    5.866900
     74          6           0        2.952200    0.403200    3.455500
     75          1           0        2.186700    0.683500    4.177500
     76          1           0        2.877900    1.049000    2.581700
     77          1           0        3.936400    0.517000    3.907600
 ---------------------------------------------------------------------
 Rotational constants (GHZ):           0.1544989           0.0701659           0.0641522
 Leave Link  202 at Thu May 27 18:28:52 2021, MaxMem= 22413312000 cpu:               0.3 elap:               0.1
 (Enter /cluster/software/Gaussian/g16_C.01/l301.exe)
 Standard basis: LANL2MB (5D, 7F)
 Ernie: Thresh=  0.10000D-02 Tol=  0.10000D-05 Strict=F.
 Ernie:  1 primitive shells out of 348 were deleted.
   223 basis functions,   679 primitive gaussians,   224 cartesian basis functions
   133 alpha electrons      133 beta electrons
[...]
     20          1           0        7.342555    0.842247   -1.942753
     21          6           0        5.467742   -0.322821    0.828813
     22          1           0        6.874767   -1.164455   -0.609054
     23          1           0        7.589219    0.049372    0.457229
     24          1           0        5.617219   -1.174879    1.507405
     25          1           0        5.364581    0.580843    1.448341
     26          1           0        4.404587   -1.416205   -0.677441
     27          6           0        1.748355    2.592855   -2.475209
     28          6           0        1.925502    0.465720   -3.754440
     29          6           0        2.032417    3.414994   -1.226398
     30          6           0        1.197229    3.228226   -3.625246
     31          1           0        2.214226    2.788706   -0.352745
     32          1           0        1.184224    4.059397   -0.968744
     33          1           0        2.910938    4.066206   -1.378425
     34          6           0        0.876945    4.719432   -3.581716
     35          6           0        0.937423    2.472216   -4.804581
     36          1           0        0.933257    5.180862   -4.574633
     37          1           0        1.572049    5.265777   -2.933351
     38          1           0       -0.138637    4.903000   -3.189416
     39          6           0        0.221415    3.124622   -5.984169
     40          6           0        1.350290    1.110315   -4.887599
     41          1           0       -0.512696    3.866891   -5.647684
     42          1           0       -0.321888    2.387621   -6.585934
     43          1           0        0.924666    3.643037   -6.659649
     44          6           0        1.163420    0.341804   -6.192572
     45          1           0        1.808488   -0.539982   -6.250690
     46          1           0        1.385544    0.965383   -7.069197
     47          1           0        0.124296   -0.014834   -6.298691
     48          6           0        2.419473   -0.969114   -3.868544
     49          1           0        2.774240   -1.350757   -2.910110
     50          1           0        3.248643   -1.038334   -4.592348
     51          1           0        1.622457   -1.643086   -4.204514
     52          6           0        2.674694   -1.439988    1.738101
     53          6           0        2.693378   -2.862437    1.635811
     54          6           0        2.585463   -0.779476    2.998256
     55          6           0        2.729483   -3.549540    0.276215
     56          6           0        2.636412   -3.637658    2.829597
     57          1           0        2.482296   -2.861712   -0.534770
     58          1           0        1.996666   -4.366372    0.227169
     59          1           0        3.718625   -3.990033    0.065273
     60          6           0        2.705611   -5.160195    2.755002
     61          6           0        2.505750   -2.993829    4.095450
     62          1           0        3.194160   -5.504737    1.837480
     63          1           0        1.700361   -5.616312    2.777180
     64          1           0        3.268407   -5.580760    3.598414
     65          6           0        2.375831   -3.840642    5.358326
     66          6           0        2.492432   -1.570203    4.182185
     67          1           0        1.788101   -4.749498    5.176912
     68          1           0        1.884643   -3.296537    6.171612
     69          1           0        3.362891   -4.163818    5.733303
     70          6           0        2.383212   -0.898597    5.548567
     71          1           0        2.585719    0.174678    5.502955
     72          1           0        3.090242   -1.333458    6.270056
     73          1           0        1.372877   -1.016535    5.975613
     74          6           0        2.562831    0.740607    3.082816
     75          1           0        1.648416    1.099272    3.577190
     76          1           0        2.586080    1.198945    2.093549
     77          1           0        3.420209    1.124810    3.658338
 ---------------------------------------------------------------------
 Rotational constants (GHZ):           0.1479610           0.0677014           0.0622514
 Leave Link  202 at Thu May 27 19:36:00 2021, MaxMem= 22413312000 cpu:               0.3 elap:               0.0
 (Enter /cluster/software/Gaussian/g16_C.01/l601.exe)
 Copying SCF densities to generalized density rwf, IOpCl= 0 IROHF=0.

 **********************************************************************

            Population analysis using the SCF Density.

 **********************************************************************

 Alpha  occ. eigenvalues --  -14.05135 -14.04876 -10.00613  -9.96712  -9.96556
 Alpha  occ. eigenvalues --   -9.95755  -9.94905  -9.93182  -9.93125  -9.93059
 Alpha  occ. eigenvalues --   -9.92965  -9.92818  -9.92804  -9.92720  -9.92711
 Alpha  occ. eigenvalues --   -9.92649  -9.92580  -9.92184  -9.92134  -9.91922
 Alpha  occ. eigenvalues --   -9.91667  -9.91630  -9.90812  -9.90758  -9.90609
 Alpha  occ. eigenvalues --   -9.90303  -9.89853  -9.89835  -9.89694  -9.89581
 Alpha  occ. eigenvalues --   -9.89172  -9.88986  -2.75592  -1.68411  -1.68096
 Alpha  occ. eigenvalues --   -1.65927  -0.92679  -0.84179  -0.78888  -0.77423
 Alpha  occ. eigenvalues --   -0.76956  -0.72588  -0.71905  -0.71592  -0.70104
 Alpha  occ. eigenvalues --   -0.68543  -0.68422  -0.65978  -0.65354  -0.64988
 Alpha  occ. eigenvalues --   -0.64925  -0.64234  -0.64106  -0.63355  -0.62393
 Alpha  occ. eigenvalues --   -0.61828  -0.59261  -0.58997  -0.57975  -0.57411
 Alpha  occ. eigenvalues --   -0.56951  -0.56149  -0.55004  -0.52411  -0.50466
 Alpha  occ. eigenvalues --   -0.49992  -0.49197  -0.48964  -0.45965  -0.45639
 Alpha  occ. eigenvalues --   -0.44974  -0.44175  -0.42517  -0.41544  -0.41156
 Alpha  occ. eigenvalues --   -0.39631  -0.39329  -0.38482  -0.38210  -0.38167
 Alpha  occ. eigenvalues --   -0.37993  -0.37383  -0.37241  -0.36827  -0.36398
 Alpha  occ. eigenvalues --   -0.36300  -0.35973  -0.35893  -0.35642  -0.35435
 Alpha  occ. eigenvalues --   -0.35274  -0.35099  -0.34856  -0.34692  -0.34468
 Alpha  occ. eigenvalues --   -0.34224  -0.34199  -0.33764  -0.33526  -0.33454
 Alpha  occ. eigenvalues --   -0.33158  -0.32895  -0.32553  -0.32423  -0.32096
 Alpha  occ. eigenvalues --   -0.31711  -0.31625  -0.31055  -0.30663  -0.30392
 Alpha  occ. eigenvalues --   -0.29574  -0.29498  -0.29342  -0.28892  -0.28574
 Alpha  occ. eigenvalues --   -0.28429  -0.28194  -0.27809  -0.27522  -0.27064
 Alpha  occ. eigenvalues --   -0.26865  -0.25295  -0.22523  -0.22012  -0.21469
 Alpha  occ. eigenvalues --   -0.20604  -0.19851  -0.19678  -0.19223  -0.18716
 Alpha  occ. eigenvalues --   -0.18507  -0.17133  -0.15772
 Alpha virt. eigenvalues --   -0.08621  -0.07842  -0.04291  -0.03088  -0.02793
 Alpha virt. eigenvalues --   -0.02199  -0.01843  -0.01176   0.01475   0.02774
 Alpha virt. eigenvalues --    0.03580   0.05883   0.06938   0.08307   0.08679
 Alpha virt. eigenvalues --    0.08868   0.09113   0.09509   0.09733   0.10009
 Alpha virt. eigenvalues --    0.10463   0.10707   0.11065   0.11355   0.11435
 Alpha virt. eigenvalues --    0.11591   0.12210   0.12635   0.12972   0.13361
 Alpha virt. eigenvalues --    0.13413   0.13713   0.13870   0.14035   0.14346
 Alpha virt. eigenvalues --    0.14508   0.14939   0.15026   0.15278   0.15664
 Alpha virt. eigenvalues --    0.15826   0.15951   0.16173   0.16353   0.16988
 Alpha virt. eigenvalues --    0.17214   0.17570   0.17708   0.17962   0.18168
 Alpha virt. eigenvalues --    0.18410   0.18734   0.19003   0.19173   0.19421
 Alpha virt. eigenvalues --    0.19554   0.19632   0.19946   0.20201   0.20530
 Alpha virt. eigenvalues --    0.20621   0.20940   0.21091   0.21272   0.21525
 Alpha virt. eigenvalues --    0.21700   0.22228   0.22333   0.22735   0.22882
 Alpha virt. eigenvalues --    0.23260   0.24137   0.24181   0.25058   0.25562
 Alpha virt. eigenvalues --    0.25917   0.26474   0.26836   0.27161   0.27718
 Alpha virt. eigenvalues --    0.27988   0.28206   0.28268   0.28842   0.29403
 Alpha virt. eigenvalues --    0.29503   0.29670   0.30181   0.30356   0.30835
 Alpha virt. eigenvalues --    0.30925   0.30961   0.31327   0.31721   0.31807
 Alpha virt. eigenvalues --    0.31858   0.32169   0.32362   0.32651   0.33090
 Alpha virt. eigenvalues --    0.33502   0.33936   0.34271   0.34464   0.34734
 Alpha virt. eigenvalues --    0.34924   0.35381   0.35655   0.36227   0.36467
 Alpha virt. eigenvalues --    0.36834   0.37207   0.37954   0.38416   0.38750
 Alpha virt. eigenvalues --    0.39162   0.40070   0.40123   0.40481   0.40834
 Alpha virt. eigenvalues --    0.41131   0.41525   0.42286   0.42993   0.43325
 Alpha virt. eigenvalues --    0.43722   0.43945   0.44416   0.44489   0.44873
 Alpha virt. eigenvalues --    0.45425   0.45676   0.45837   0.46064   0.46839
 Alpha virt. eigenvalues --    0.47127   0.47309   0.47989   0.48420   0.48478
 Alpha virt. eigenvalues --    0.49033   0.49948   0.50132   0.50482   0.50588
 Alpha virt. eigenvalues --    0.51447   0.51664   0.52050   0.52594   0.53237
 Alpha virt. eigenvalues --    0.53715   0.54002   0.54737   0.54912   0.55291
 Alpha virt. eigenvalues --    0.55885   0.56857   0.57322   0.58057   0.60238
 Alpha virt. eigenvalues --    0.61218   0.61397   0.62006   0.62868   0.63027
 Alpha virt. eigenvalues --    0.64020   0.65108   0.66334   0.66468   0.66681
 Alpha virt. eigenvalues --    0.67287   0.68352   0.69758   0.70786   0.72290
 Alpha virt. eigenvalues --    0.74378   0.74600   0.74878   0.78379   0.78557
 Alpha virt. eigenvalues --    0.79607   0.80621   0.81438   0.82304   0.83241
 Alpha virt. eigenvalues --    0.84319   0.85007   0.85140   0.86146   0.87702
 Alpha virt. eigenvalues --    0.89326   0.89900   0.91022   0.91949   0.93707
 Alpha virt. eigenvalues --    0.94745   0.95617   0.96828   0.97495   0.98369
 Alpha virt. eigenvalues --    0.99223   0.99764   1.01485   1.02320   1.03397
 Alpha virt. eigenvalues --    1.04686   1.04726   1.05523   1.06145   1.07040
 Alpha virt. eigenvalues --    1.07676   1.07887   1.08559   1.08966   1.09149
 Alpha virt. eigenvalues --    1.09673   1.10223   1.10752   1.11358   1.11515
 Alpha virt. eigenvalues --    1.12168   1.12192   1.12801   1.13126   1.13716
 Alpha virt. eigenvalues --    1.14784   1.14845   1.14997   1.15837   1.16528
 Alpha virt. eigenvalues --    1.17073   1.17679   1.18205   1.19306   1.19537
 Alpha virt. eigenvalues --    1.20094   1.20435   1.20905   1.21923   1.22420
 Alpha virt. eigenvalues --    1.23656   1.24850   1.28632   1.29352   1.31631
 Alpha virt. eigenvalues --    1.33157   1.33935   1.34967   1.35263   1.35649
 Alpha virt. eigenvalues --    1.36814   1.38924   1.39419   1.40554   1.41646
 Alpha virt. eigenvalues --    1.42844   1.43368   1.44961   1.46582   1.47830
 Alpha virt. eigenvalues --    1.49249   1.49950   1.50291   1.51229   1.53924
 Alpha virt. eigenvalues --    1.55456   1.57381   1.59424   1.68589   1.71658
 Alpha virt. eigenvalues --    1.74595   1.84385   1.86518   1.91886   8.89747
 Alpha virt. eigenvalues --   10.61269  10.81233
          Condensed to atoms (all electrons):
 Mulliken charges:
               1
     1  Ru   0.350161
     2  C   -0.528002
     3  C    0.092718
     4  Cl  -0.274236
     5  Cl  -0.274184
     6  H    0.243759
     7  H    0.207514
     8  N   -0.449246
     9  N   -0.433871
    10  C    0.005117
    11  C    0.130807
    12  C   -0.442874
    13  C   -0.004350
    14  H    0.207157
    15  C   -0.414854
    16  H    0.226751
    17  H    0.209139
    18  C   -0.412959
    19  H    0.205071
    20  H    0.209551
    21  C   -0.438984
    22  H    0.203829
    23  H    0.209408
    24  H    0.225733
    25  H    0.206003
    26  H    0.212102
    27  C    0.194619
    28  C    0.182646
    29  C   -0.848513
    30  C    0.198777
    31  H    0.256516
    32  H    0.255733
    33  H    0.205076
    34  C   -0.855816
    35  C    0.135881
    36  H    0.234566
    37  H    0.239316
    38  H    0.239538
    39  C   -0.850743
    40  C    0.204320
    41  H    0.241035
    42  H    0.246046
    43  H    0.223708
    44  C   -0.859706
    45  H    0.249029
    46  H    0.226690
    47  H    0.239752
    48  C   -0.850853
    49  H    0.241309
    50  H    0.201415
    51  H    0.260567
    52  C    0.105907
    53  C    0.177616
    54  C    0.155122
    55  C   -0.846362
    56  C    0.188885
    57  H    0.274217
    58  H    0.240527
    59  H    0.213697
    60  C   -0.854327
    61  C    0.161775
    62  H    0.247468
    63  H    0.232682
    64  H    0.235357
    65  C   -0.850439
    66  C    0.187283
    67  H    0.239192
    68  H    0.247656
    69  H    0.228530
    70  C   -0.862102
    71  H    0.257163
    72  H    0.228726
    73  H    0.232182
    74  C   -0.836661
    75  H    0.244087
    76  H    0.260066
    77  H    0.209584
 Sum of Mulliken charges =  -0.00000
 Mulliken charges with hydrogens summed into heavy atoms:
               1
     1  Ru   0.350161
     2  C   -0.076729
     3  C    0.092718
     4  Cl  -0.274236
     5  Cl  -0.274184
     8  N   -0.449246
     9  N   -0.433871
    10  C    0.212274
    11  C    0.130807
    12  C   -0.006985
    13  C    0.207751
    15  C   -0.000232
    18  C    0.000279
    21  C   -0.007248
    27  C    0.194619
    28  C    0.182646
    29  C   -0.131188
    30  C    0.198777
    34  C   -0.142396
    35  C    0.135881
    39  C   -0.139954
    40  C    0.204320
    44  C   -0.144234
    48  C   -0.147561
    52  C    0.105907
    53  C    0.177616
    54  C    0.155122
    55  C   -0.117920
    56  C    0.188885
    60  C   -0.138820
    61  C    0.161775
    65  C   -0.135062
    66  C    0.187283
    70  C   -0.144030
    74  C   -0.122925
 Electronic spatial extent (au):  <R**2>=          23325.6250
 Charge=              0.0000 electrons
 Dipole moment (field-independent basis, Debye):
    X=              7.7074    Y=             -0.9139    Z=              1.5135  Tot=              7.9076
 Quadrupole moment (field-independent basis, Debye-Ang):
   XX=           -210.3375   YY=           -229.2099   ZZ=           -215.6439
   XY=             -2.1300   XZ=             -0.7096   YZ=            -19.4140
 Traceless Quadrupole moment (field-independent basis, Debye-Ang):
   XX=              8.0596   YY=            -10.8128   ZZ=              2.7532
   XY=             -2.1300   XZ=             -0.7096   YZ=            -19.4140
 Octapole moment (field-independent basis, Debye-Ang**2):
  XXX=          -1332.4522  YYY=             74.5919  ZZZ=            287.1158  XYY=           -447.2344
  XXY=             23.7496  XXZ=             92.9121  XZZ=           -451.0240  YZZ=             32.5856
  YYZ=            109.9898  XYZ=              0.7599
 Hexadecapole moment (field-independent basis, Debye-Ang**3):
 XXXX=         -10661.4172 YYYY=          -7095.1653 ZZZZ=         -12509.8872 XXXY=            681.4925
 XXXZ=           -297.4117 YYYX=            562.4704 YYYZ=           2481.8763 ZZZX=            -77.9934
 ZZZY=           2455.4294 XXYY=          -3054.9402 XXZZ=          -4087.9387 YYZZ=          -3267.2913
 XXYZ=            936.4527 YYXZ=             -7.7162 ZZXY=            122.8578
 N-N= 4.167400872107D+03 E-N=-1.155274526799D+04  KE= 1.314182320023D+03
 No NMR shielding tensors so no spin-rotation constants.
 Leave Link  601 at Thu May 27 19:36:00 2021, MaxMem= 22413312000 cpu:              11.3 elap:               0.4
 (Enter /cluster/software/Gaussian/g16_C.01/l9999.exe)
 Unable to Open any file for archive entry.
 1\1\GINC-C3-3\FOpt\ROLYP\LANL2DZ\C30H42Cl2N2Ru1\MARCOF\27-May-2021\0\\
 #P # OLYP/LANL2DZ 5D 7F # GEOM=CHECK # GUESS=READ # NOSYM # INT(GRID=U
 LTRAFINE) # OPT=(TIGHT,CALCFC,MAXCYCLES=320) # SCF=(VSHIFT=200,NOSYM,N
 OVARACC,MAXCYCLE=980)\\Step 5 (second opt: DZ) - Protocol Denoptim_1.1
 , 19 Nov 2014\\0,1\Ru,-0.0472354752,-0.2114507135,-0.3390997856\C,-0.4
 384020854,-1.257480678,1.0932959452\C,1.8994363194,-0.1404143446,-0.35
 17854612\Cl,-0.4581914748,-1.827030782,-2.0875872158\Cl,-0.5218087381,
 1.9521288936,0.6265933925\H,0.2468641211,-1.7671681666,1.7746977366\H,
 -1.5244159421,-1.3956926228,1.2843587964\N,2.603225815,0.5278814527,-1
 .3675046959\N,2.8538590461,-0.643518384,0.5391436771\C,4.0408838702,0.
 6921975567,-0.973549987\C,2.0471311336,1.1992643948,-2.5361024547\C,5.
 160048416,0.7500320689,-2.0224291315\C,4.2292979796,-0.5170202707,-0.0
 578828768\H,4.1163048116,1.613122911,-0.3659932321\C,6.4981442199,0.89
 19656358,-1.2365844452\H,5.0300202136,1.6038165822,-2.7030378561\H,5.1
 704613511,-0.1632700495,-2.6350712512\C,6.6882740619,-0.1868678993,-0.
 1315853501\H,6.5353636478,1.8937678076,-0.7749087368\H,7.3425551573,0.
 8422466767,-1.9427534433\C,5.4677418216,-0.3228208748,0.8288132449\H,6
 .8747665916,-1.164454878,-0.6090540133\H,7.5892190636,0.0493719288,0.4
 572291173\H,5.6172188793,-1.1748788187,1.5074050675\H,5.36458143,0.580
 8434577,1.4483408797\H,4.4045869214,-1.4162048194,-0.677440995\C,1.748
 3552256,2.5928545844,-2.4752085457\C,1.9255024101,0.4657203389,-3.7544
 399963\C,2.0324166411,3.4149944738,-1.2263984807\C,1.1972293817,3.2282
 264802,-3.6252457334\H,2.2142261379,2.7887060974,-0.3527445585\H,1.184
 2238302,4.0593974806,-0.9687439406\H,2.9109378286,4.066206498,-1.37842
 53328\C,0.8769446512,4.7194316461,-3.5817163294\C,0.9374226422,2.47221
 64681,-4.8045814288\H,0.9332567435,5.1808623601,-4.5746326069\H,1.5720
 487363,5.2657766211,-2.9333505673\H,-0.1386366787,4.9030004695,-3.1894
 155031\C,0.221414795,3.1246217904,-5.9841685627\C,1.3502901167,1.11031
 46101,-4.8875992597\H,-0.5126959071,3.8668914107,-5.6476839468\H,-0.32
 18876916,2.3876213368,-6.5859339099\H,0.9246664632,3.6430373244,-6.659
 648693\C,1.1634204843,0.3418042968,-6.1925719948\H,1.8084880822,-0.539
 9819215,-6.2506902534\H,1.385544077,0.9653832227,-7.069197485\H,0.1242
 963182,-0.0148343539,-6.2986913237\C,2.4194731141,-0.9691138919,-3.868
 5437473\H,2.7742400024,-1.3507574185,-2.9101100679\H,3.2486425513,-1.0
 383341214,-4.59234802\H,1.6224567083,-1.6430861805,-4.2045144689\C,2.6
 74693538,-1.4399879902,1.7381008369\C,2.6933776782,-2.8624370016,1.635
 8109411\C,2.5854632998,-0.7794757121,2.9982564611\C,2.7294832658,-3.54
 9539756,0.2762147602\C,2.636411802,-3.6376580061,2.829596685\H,2.48229
 59751,-2.8617123669,-0.5347703363\H,1.9966659268,-4.3663719935,0.22716
 86244\H,3.7186246087,-3.9900325218,0.0652729506\C,2.7056113741,-5.1601
 945205,2.7550022778\C,2.5057498188,-2.9938292523,4.0954497519\H,3.1941
 601442,-5.5047371572,1.8374802159\H,1.7003614305,-5.6163121773,2.77717
 95911\H,3.2684067424,-5.5807603486,3.5984136529\C,2.3758311982,-3.8406
 418419,5.3583257776\C,2.4924321857,-1.5702031805,4.182184651\H,1.78810
 10211,-4.7494976033,5.1769115381\H,1.8846429414,-3.2965374527,6.171611
 5637\H,3.3628912566,-4.1638175253,5.7333032256\C,2.3832119884,-0.89859
 74959,5.5485674259\H,2.5857194542,0.174677906,5.5029547631\H,3.0902419
 409,-1.3334582135,6.2700558173\H,1.3728774552,-1.0165348877,5.97561312
 05\C,2.5628311592,0.7406067883,3.0828156566\H,1.6484164648,1.099271667
 2,3.57719032\H,2.586080033,1.1989451024,2.0935493159\H,3.4202094771,1.
 1248098537,3.6583382436\\Version=ES64L-G16RevC.01\HF=-1401.2169369\RMS
 D=7.013e-09\RMSF=4.000e-07\Dipole=3.032342,-0.3595524,0.5954727\Quadru
 pole=5.9921084,-8.0390447,2.0469363,-1.583601,-0.5275974,-14.433853\PG
 =C01 [X(C30H42Cl2N2Ru1)]\\@
 The archive entry for this job was punched.


 A people that values its privileges above its principles soon loses both.
 -- Dwight D. Eisenhower
 Job cpu time:       0 days  7 hours  0 minutes 19.0 seconds.
 Elapsed time:       0 days  0 hours 10 minutes 34.9 seconds.
 File lengths (MBytes):  RWF=   1794 Int=      0 D2E=      0 Chk=     19 Scr=      1
 Normal termination of Gaussian 16 at Thu May 27 19:36:00 2021.
