 Entering Gaussian System, Link 0=g09
 Initial command:
 /global/apps/gaussian/09.d01/l1.exe "/global/work/marcof/2348451.stallo-adm.uit.no/Mol_000130_2D_DFT/Gau-50339.inp" -scrdir="/global/work/marcof/2348451.stallo-adm.uit.no/Mol_000130_2D_DFT/"
 Entering Link 1 = /global/apps/gaussian/09.d01/l1.exe PID=     50340.
  
 Copyright (c) 1988,1990,1992,1993,1995,1998,2003,2009,2013,
            Gaussian, Inc.  All Rights Reserved.
  
 This is part of the Gaussian(R) 09 program.  It is based on
 the Gaussian(R) 03 system (copyright 2003, Gaussian, Inc.),
 the Gaussian(R) 98 system (copyright 1998, Gaussian, Inc.),
 the Gaussian(R) 94 system (copyright 1995, Gaussian, Inc.),
 the Gaussian 92(TM) system (copyright 1992, Gaussian, Inc.),
 the Gaussian 90(TM) system (copyright 1990, Gaussian, Inc.),
 the Gaussian 88(TM) system (copyright 1988, Gaussian, Inc.),
 the Gaussian 86(TM) system (copyright 1986, Carnegie Mellon
 University), and the Gaussian 82(TM) system (copyright 1983,
 Carnegie Mellon University). Gaussian is a federally registered
 trademark of Gaussian, Inc.
  
 This software contains proprietary and confidential information,
 including trade secrets, belonging to Gaussian, Inc.
  
 This software is provided under written license and may be
 used, copied, transmitted, or stored only in accord with that
 written license.
  
 The following legend is applicable only to US Government
 contracts under FAR:
  
                    RESTRICTED RIGHTS LEGEND
  
 Use, reproduction and disclosure by the US Government is
 subject to restrictions as set forth in subparagraphs (a)
 and (c) of the Commercial Computer Software - Restricted
 Rights clause in FAR 52.227-19.
  
 Gaussian, Inc.
 340 Quinnipiac St., Bldg. 40, Wallingford CT 06492
  
  
 ---------------------------------------------------------------
 Warning -- This program may not be used in any manner that
 competes with the business of Gaussian, Inc. or will provide
 assistance to any competitor of Gaussian, Inc.  The licensee
 of this program is prohibited from giving any competitor of
 Gaussian, Inc. access to this program.  By using this program,
 the user acknowledges that Gaussian, Inc. is engaged in the
 business of creating and licensing software in the field of
 computational chemistry and represents and warrants to the
 licensee that it is not a competitor of Gaussian, Inc. and that
 it will not use this program in any manner prohibited above.
 ---------------------------------------------------------------
  

 Cite this work as:
 Gaussian 09, Revision D.01,
 M. J. Frisch, G. W. Trucks, H. B. Schlegel, G. E. Scuseria, 
 M. A. Robb, J. R. Cheeseman, G. Scalmani, V. Barone, B. Mennucci, 
 G. A. Petersson, H. Nakatsuji, M. Caricato, X. Li, H. P. Hratchian, 
 A. F. Izmaylov, J. Bloino, G. Zheng, J. L. Sonnenberg, M. Hada, 
 M. Ehara, K. Toyota, R. Fukuda, J. Hasegawa, M. Ishida, T. Nakajima, 
 Y. Honda, O. Kitao, H. Nakai, T. Vreven, J. A. Montgomery, Jr., 
 J. E. Peralta, F. Ogliaro, M. Bearpark, J. J. Heyd, E. Brothers, 
 K. N. Kudin, V. N. Staroverov, T. Keith, R. Kobayashi, J. Normand, 
 K. Raghavachari, A. Rendell, J. C. Burant, S. S. Iyengar, J. Tomasi, 
 M. Cossi, N. Rega, J. M. Millam, M. Klene, J. E. Knox, J. B. Cross, 
 V. Bakken, C. Adamo, J. Jaramillo, R. Gomperts, R. E. Stratmann, 
 O. Yazyev, A. J. Austin, R. Cammi, C. Pomelli, J. W. Ochterski, 
 R. L. Martin, K. Morokuma, V. G. Zakrzewski, G. A. Voth, 
 P. Salvador, J. J. Dannenberg, S. Dapprich, A. D. Daniels, 
 O. Farkas, J. B. Foresman, J. V. Ortiz, J. Cioslowski, 
 and D. J. Fox, Gaussian, Inc., Wallingford CT, 2013.
 
 ******************************************
 Gaussian 09:  EM64L-G09RevD.01 24-Apr-2013
                 9-Dec-2014 
 ******************************************
 %LINDAWORKERS=cib12-7,cib9-15
 %NPROCSHARED=16
 Will use up to   16 processors via shared memory.
 %CHK=Mol_000130_2D_DFT
 %MEM=28GB
 SetLPE:  input flags=""
 SetLPE:    new flags=" -nodelist 'cib12-7.ibnet cib9-15.ibnet'"
 Will use up to    2 processors via Linda.
 ----------------------------------------------------------------------
 #P # OLYP/LANL2DZ 5D 7F # GEOM=CHECK # GUESS=READ # NOSYM # SCF=(VSHIF
 T=200,NOSYM,NOVARACC,MAXCYCLE=980) # OPT=(CALCFC,LOOSE,MAXCYCLES=320,M
 AXCYCLE=25)
 ----------------------------------------------------------------------
 1/6=25,7=-1,10=4,14=-1,18=20,19=15,26=3,29=2,38=1/1,3;
 2/9=110,12=2,15=1,40=1/2;
 3/5=6,6=3,8=11,11=2,14=-4,16=1,25=1,30=1,71=2,74=2002,116=-2,140=1/1,2,3;
 4/5=1,9=2/1;
 5/5=2,7=980,10=200,38=6/2;
 8/6=4,10=90,11=11/1;
 11/6=1,8=1,9=11,15=111,16=1,31=1/1,2,10;
 10/6=1,13=1,31=1/2;
 6/7=2,8=2,9=2,10=2,28=1/1;
 7/10=1,18=20,25=1,30=1/1,2,3,16;
 1/6=25,7=-1,10=4,14=-1,18=20,19=15,26=3/3(2);
 2/9=110,15=1/2;
 99//99;
 2/9=110,15=1/2;
 3/5=6,6=3,8=11,11=2,14=-2,16=1,25=1,30=1,71=1,74=2002/1,2,3;
 4/5=5,9=2,16=3,69=1/1;
 5/5=2,7=980,10=200,38=1/2;
 7/30=1/1,2,3,16;
 1/6=25,7=-1,14=-1,18=20,19=15,26=3/3(-5);
 2/9=110,15=1/2;
 6/7=2,8=2,9=2,10=2,19=2,28=1/1;
 99/9=1/99;
 Leave Link    1 at Tue Dec  9 10:52:53 2014, MaxMem=  3758096384 cpu:         9.3
 (Enter /global/apps/gaussian/09.d01/l101.exe)
 ---------------------------------------------------------------
 LOOP WITH CALCFC IDXE0041=1 TO FIX ERROR E0040-OPTSTEPSEXCEEDED
 ---------------------------------------------------------------
 Structure from the checkpoint file:  "Mol_000130_2D_DFT.chk"
 Charge =  0 Multiplicity = 1
 Redundant internal coordinates found in file.
 Ru,0,0.208639323,-0.3047765748,-0.8967755239
 C,0,-1.3917521131,-1.1648672643,-0.9265974534
 Cl,0,1.0356408336,-1.3097148129,1.133653841
 Cl,0,0.5027770562,0.1326617049,-3.2718674619
 H,0,-2.3880797498,-0.7819488364,-0.6849615325
 H,0,-1.3379086083,-2.2287515418,-1.2418711773
 C,0,-0.1920504124,1.5683121946,-0.4564398267
 N,0,0.8435793169,2.4446633889,-0.1268528367
 N,0,-1.3588973634,2.285288016,-0.6051053485
 C,0,1.9475765288,2.0794215407,0.7667232065
 C,0,0.4335211249,3.9107605448,-0.4796292248
 C,0,3.3375158268,1.9736148259,0.4303241644
 C,0,1.5591965993,1.8732275125,2.1159739796
 C,0,4.2304947639,1.657307567,1.502180444
 C,0,3.8416746616,1.4430915014,2.8388559863
 H,0,5.2829488738,1.5339768986,1.2539333608
 C,0,2.4684580244,1.5641056621,3.1347574376
 H,0,2.0961634127,1.404322342,4.1466343079
 C,0,-1.1682735186,3.8001399916,-0.3049090059
 C,0,-2.5851495865,1.7392978821,-1.1632736648
 C,0,-3.705879309,1.3133264672,-0.3746887784
 C,0,-2.6685221537,1.6656985328,-2.5725482884
 C,0,-4.8574376064,0.8585247392,-1.0797393651
 C,0,-4.949289694,0.7944760383,-2.4872300862
 H,0,-5.7020082777,0.5015010641,-0.4898372894
 C,0,-3.8167554469,1.2021903179,-3.2284685875
 H,0,-3.8135662848,1.1500473356,-4.3170345026
 C,0,-6.220080213,0.2596056643,-3.1619987688
 C,0,-5.958835978,-1.09492449,-3.8799556983
 C,0,-6.8503261801,1.2968983411,-4.1320003695
 H,0,-6.9605152575,0.0699455298,-2.3668887697
 H,0,-6.8910728864,-1.4846358068,-4.3171996977
 H,0,-5.5688403039,-1.8467511052,-3.1779157091
 H,0,-5.225846215,-0.9841794656,-4.6930822842
 H,0,-7.0804594,2.238655497,-3.6110838932
 H,0,-7.7879591233,0.9041557001,-4.5545001992
 H,0,-6.178422269,1.5304962022,-4.9708694094
 C,0,0.9249154035,4.1207570945,-1.9618112503
 C,0,0.8647674438,5.518249308,-2.6355501975
 H,0,1.9710224337,3.811705477,-1.9574968952
 H,0,0.414506086,3.3864409458,-2.6023177725
 H,0,1.1049633714,6.3401072966,-1.9472363659
 H,0,-0.1087216936,5.7406957427,-3.0892280346
 H,0,1.6120900737,5.548108923,-3.4440593248
 C,0,1.0115399798,4.9900762348,0.4873161728
 C,0,2.5015260653,5.3995406209,0.4513486233
 H,0,0.4253373641,5.89772396,0.282567903
 H,0,0.7788462932,4.6998643239,1.5174244939
 H,0,3.1499231301,4.6348390466,0.884779228
 H,0,2.6225975034,6.3123352193,1.0565633961
 H,0,2.8715912718,5.6173090279,-0.5566416313
 C,0,-1.9201197613,4.7109327528,-1.3286135461
 C,0,-3.4541400784,4.9044732118,-1.2246921441
 H,0,-1.4639131863,5.7071947226,-1.2315361549
 H,0,-1.686985572,4.3710326983,-2.3435021781
 H,0,-4.0106286812,3.9676162734,-1.2925916569
 H,0,-3.7795532121,5.5386922833,-2.0651085136
 H,0,-3.7583916334,5.4100571197,-0.2994081749
 C,0,-1.7085399054,4.0220449525,1.1563256604
 C,0,-1.8548494261,5.4512330663,1.7519517089
 H,0,-2.7066966232,3.5785706232,1.1546879737
 H,0,-1.1245516675,3.4054277956,1.8504650461
 H,0,-2.1773566657,6.2002687164,1.0168246459
 H,0,-0.9336463246,5.8206847938,2.2159578965
 H,0,-2.6227690492,5.422320515,2.540963706
 C,0,3.9752230074,2.199770478,-0.9177212446
 C,0,5.1777055165,2.9555357463,-1.0400956092
 C,0,3.4531385202,1.6147811974,-2.1004312377
 C,0,5.8134089854,3.1293721121,-2.2846538524
 H,0,5.6055153013,3.4335694794,-0.1607182793
 C,0,5.2709401643,2.5471776287,-3.44983295
 H,0,6.7281831083,3.7220457177,-2.3441034483
 C,0,4.088460074,1.7891400369,-3.3468916076
 H,0,5.7623127853,2.6796460622,-4.4154467323
 H,0,3.6519238176,1.324495711,-4.2317924841
 H,0,2.5529322824,1.0003083927,-2.0647665211
 H,0,0.502050729,1.9565320572,2.3625640599
 C,0,4.880292385,1.072214104,3.904509158
 C,0,4.6422478991,-0.3586902969,4.4637684918
 C,0,4.9545840079,2.1217861896,5.0478403744
 H,0,5.8663576207,1.0644089095,3.4099969769
 H,0,3.6748277282,-0.4342624227,4.9810924112
 H,0,5.4315097723,-0.6242799846,5.1843121153
 H,0,4.6484221178,-1.1049777071,3.6560898551
 H,0,4.0152508137,2.1679675706,5.618940951
 H,0,5.1588472248,3.1282219907,4.6519108868
 H,0,5.7602609831,1.8622797381,5.7520722391
 C,0,-3.7879052386,1.2735060761,1.1275776044
 C,0,-4.9479081642,1.7787903557,1.7756855285
 C,0,-2.790000271,0.6671733156,1.9362692183
 C,0,-5.0943602916,1.7092402136,3.1755527425
 H,0,-5.7381078039,2.2416067241,1.1831404845
 C,0,-4.0892518745,1.1133845177,3.9652810333
 H,0,-5.9922873094,2.1154392889,3.6452537926
 C,0,-2.9398797187,0.5909234172,3.3351235218
 H,0,-4.2017483419,1.0535933892,5.0491614718
 H,0,-2.1570559759,0.1142785421,3.9271949706
 H,0,-1.8994681491,0.2428785373,1.4855066281
 H,0,-1.7961430402,1.9432770615,-3.1572851382
 Recover connectivity data from disk.
 NAtoms=     99 NQM=       99 NQMF=       0 NMMI=      0 NMMIF=      0
                NMic=       0 NMicF=      0.
                    Isotopes and Nuclear Properties:
 (Nuclear quadrupole moments (NQMom) in fm**2, nuclear magnetic moments (NMagM)
  in nuclear magnetons)

  Atom         1           2           3           4           5           6           7           8           9          10
 IAtWgt=         102          12          35          35           1           1          12          14          14          12
 AtmWgt= 101.9037000  12.0000000  34.9688527  34.9688527   1.0078250   1.0078250  12.0000000  14.0030740  14.0030740  12.0000000
 NucSpn=           0           0           3           3           1           1           0           2           2           0
 AtZEff=-221.7600000  -3.6000000-204.0000000-204.0000000  -1.0000000  -1.0000000  -3.6000000  -4.5500000  -4.5500000  -3.6000000
 NQMom=    0.0000000   0.0000000  -8.1650000  -8.1650000   0.0000000   0.0000000   0.0000000   2.0440000   2.0440000   0.0000000
 NMagM=    0.0000000   0.0000000   0.8218740   0.8218740   2.7928460   2.7928460   0.0000000   0.4037610   0.4037610   0.0000000
 AtZNuc=  44.0000000   6.0000000  17.0000000  17.0000000   1.0000000   1.0000000   6.0000000   7.0000000   7.0000000   6.0000000

  Atom        11          12          13          14          15          16          17          18          19          20
 IAtWgt=          12          12          12          12          12           1          12           1          12          12
 AtmWgt=  12.0000000  12.0000000  12.0000000  12.0000000  12.0000000   1.0078250  12.0000000   1.0078250  12.0000000  12.0000000
 NucSpn=           0           0           0           0           0           1           0           1           0           0
 AtZEff=  -3.6000000  -3.6000000  -3.6000000  -3.6000000  -3.6000000  -1.0000000  -3.6000000  -1.0000000  -3.6000000  -3.6000000
 NQMom=    0.0000000   0.0000000   0.0000000   0.0000000   0.0000000   0.0000000   0.0000000   0.0000000   0.0000000   0.0000000
 NMagM=    0.0000000   0.0000000   0.0000000   0.0000000   0.0000000   2.7928460   0.0000000   2.7928460   0.0000000   0.0000000
 AtZNuc=   6.0000000   6.0000000   6.0000000   6.0000000   6.0000000   1.0000000   6.0000000   1.0000000   6.0000000   6.0000000

  Atom        21          22          23          24          25          26          27          28          29          30
 IAtWgt=          12          12          12          12           1          12           1          12          12          12
 AtmWgt=  12.0000000  12.0000000  12.0000000  12.0000000   1.0078250  12.0000000   1.0078250  12.0000000  12.0000000  12.0000000
 NucSpn=           0           0           0           0           1           0           1           0           0           0
 AtZEff=  -3.6000000  -3.6000000  -3.6000000  -3.6000000  -1.0000000  -3.6000000  -1.0000000  -3.6000000  -3.6000000  -3.6000000
 NQMom=    0.0000000   0.0000000   0.0000000   0.0000000   0.0000000   0.0000000   0.0000000   0.0000000   0.0000000   0.0000000
 NMagM=    0.0000000   0.0000000   0.0000000   0.0000000   2.7928460   0.0000000   2.7928460   0.0000000   0.0000000   0.0000000
 AtZNuc=   6.0000000   6.0000000   6.0000000   6.0000000   1.0000000   6.0000000   1.0000000   6.0000000   6.0000000   6.0000000

  Atom        31          32          33          34          35          36          37          38          39          40
 IAtWgt=           1           1           1           1           1           1           1          12          12           1
 AtmWgt=   1.0078250   1.0078250   1.0078250   1.0078250   1.0078250   1.0078250   1.0078250  12.0000000  12.0000000   1.0078250
 NucSpn=           1           1           1           1           1           1           1           0           0           1
 AtZEff=  -1.0000000  -1.0000000  -1.0000000  -1.0000000  -1.0000000  -1.0000000  -1.0000000  -3.6000000  -3.6000000  -1.0000000
 NQMom=    0.0000000   0.0000000   0.0000000   0.0000000   0.0000000   0.0000000   0.0000000   0.0000000   0.0000000   0.0000000
 NMagM=    2.7928460   2.7928460   2.7928460   2.7928460   2.7928460   2.7928460   2.7928460   0.0000000   0.0000000   2.7928460
 AtZNuc=   1.0000000   1.0000000   1.0000000   1.0000000   1.0000000   1.0000000   1.0000000   6.0000000   6.0000000   1.0000000

  Atom        41          42          43          44          45          46          47          48          49          50
 IAtWgt=           1           1           1           1          12          12           1           1           1           1
 AtmWgt=   1.0078250   1.0078250   1.0078250   1.0078250  12.0000000  12.0000000   1.0078250   1.0078250   1.0078250   1.0078250
 NucSpn=           1           1           1           1           0           0           1           1           1           1
 AtZEff=  -1.0000000  -1.0000000  -1.0000000  -1.0000000  -3.6000000  -3.6000000  -1.0000000  -1.0000000  -1.0000000  -1.0000000
 NQMom=    0.0000000   0.0000000   0.0000000   0.0000000   0.0000000   0.0000000   0.0000000   0.0000000   0.0000000   0.0000000
 NMagM=    2.7928460   2.7928460   2.7928460   2.7928460   0.0000000   0.0000000   2.7928460   2.7928460   2.7928460   2.7928460
 AtZNuc=   1.0000000   1.0000000   1.0000000   1.0000000   6.0000000   6.0000000   1.0000000   1.0000000   1.0000000   1.0000000

  Atom        51          52          53          54          55          56          57          58          59          60
 IAtWgt=           1          12          12           1           1           1           1           1          12          12
 AtmWgt=   1.0078250  12.0000000  12.0000000   1.0078250   1.0078250   1.0078250   1.0078250   1.0078250  12.0000000  12.0000000
 NucSpn=           1           0           0           1           1           1           1           1           0           0
 AtZEff=  -1.0000000  -3.6000000  -3.6000000  -1.0000000  -1.0000000  -1.0000000  -1.0000000  -1.0000000  -3.6000000  -3.6000000
 NQMom=    0.0000000   0.0000000   0.0000000   0.0000000   0.0000000   0.0000000   0.0000000   0.0000000   0.0000000   0.0000000
 NMagM=    2.7928460   0.0000000   0.0000000   2.7928460   2.7928460   2.7928460   2.7928460   2.7928460   0.0000000   0.0000000
 AtZNuc=   1.0000000   6.0000000   6.0000000   1.0000000   1.0000000   1.0000000   1.0000000   1.0000000   6.0000000   6.0000000

  Atom        61          62          63          64          65          66          67          68          69          70
 IAtWgt=           1           1           1           1           1          12          12          12          12           1
 AtmWgt=   1.0078250   1.0078250   1.0078250   1.0078250   1.0078250  12.0000000  12.0000000  12.0000000  12.0000000   1.0078250
 NucSpn=           1           1           1           1           1           0           0           0           0           1
 AtZEff=  -1.0000000  -1.0000000  -1.0000000  -1.0000000  -1.0000000  -3.6000000  -3.6000000  -3.6000000  -3.6000000  -1.0000000
 NQMom=    0.0000000   0.0000000   0.0000000   0.0000000   0.0000000   0.0000000   0.0000000   0.0000000   0.0000000   0.0000000
 NMagM=    2.7928460   2.7928460   2.7928460   2.7928460   2.7928460   0.0000000   0.0000000   0.0000000   0.0000000   2.7928460
 AtZNuc=   1.0000000   1.0000000   1.0000000   1.0000000   1.0000000   6.0000000   6.0000000   6.0000000   6.0000000   1.0000000

  Atom        71          72          73          74          75          76          77          78          79          80
 IAtWgt=          12           1          12           1           1           1           1          12          12          12
 AtmWgt=  12.0000000   1.0078250  12.0000000   1.0078250   1.0078250   1.0078250   1.0078250  12.0000000  12.0000000  12.0000000
 NucSpn=           0           1           0           1           1           1           1           0           0           0
 AtZEff=  -3.6000000  -1.0000000  -3.6000000  -1.0000000  -1.0000000  -1.0000000  -1.0000000  -3.6000000  -3.6000000  -3.6000000
 NQMom=    0.0000000   0.0000000   0.0000000   0.0000000   0.0000000   0.0000000   0.0000000   0.0000000   0.0000000   0.0000000
 NMagM=    0.0000000   2.7928460   0.0000000   2.7928460   2.7928460   2.7928460   2.7928460   0.0000000   0.0000000   0.0000000
 AtZNuc=   6.0000000   1.0000000   6.0000000   1.0000000   1.0000000   1.0000000   1.0000000   6.0000000   6.0000000   6.0000000

  Atom        81          82          83          84          85          86          87          88          89          90
 IAtWgt=           1           1           1           1           1           1           1          12          12          12
 AtmWgt=   1.0078250   1.0078250   1.0078250   1.0078250   1.0078250   1.0078250   1.0078250  12.0000000  12.0000000  12.0000000
 NucSpn=           1           1           1           1           1           1           1           0           0           0
 AtZEff=  -1.0000000  -1.0000000  -1.0000000  -1.0000000  -1.0000000  -1.0000000  -1.0000000  -3.6000000  -3.6000000  -3.6000000
 NQMom=    0.0000000   0.0000000   0.0000000   0.0000000   0.0000000   0.0000000   0.0000000   0.0000000   0.0000000   0.0000000
 NMagM=    2.7928460   2.7928460   2.7928460   2.7928460   2.7928460   2.7928460   2.7928460   0.0000000   0.0000000   0.0000000
 AtZNuc=   1.0000000   1.0000000   1.0000000   1.0000000   1.0000000   1.0000000   1.0000000   6.0000000   6.0000000   6.0000000

  Atom        91          92          93          94          95          96          97          98          99
 IAtWgt=          12           1          12           1          12           1           1           1           1
 AtmWgt=  12.0000000   1.0078250  12.0000000   1.0078250  12.0000000   1.0078250   1.0078250   1.0078250   1.0078250
 NucSpn=           0           1           0           1           0           1           1           1           1
 AtZEff=  -3.6000000  -1.0000000  -3.6000000  -1.0000000  -3.6000000  -1.0000000  -1.0000000  -1.0000000  -1.0000000
 NQMom=    0.0000000   0.0000000   0.0000000   0.0000000   0.0000000   0.0000000   0.0000000   0.0000000   0.0000000
 NMagM=    0.0000000   2.7928460   0.0000000   2.7928460   0.0000000   2.7928460   2.7928460   2.7928460   2.7928460
 AtZNuc=   6.0000000   1.0000000   6.0000000   1.0000000   6.0000000   1.0000000   1.0000000   1.0000000   1.0000000
 Leave Link  101 at Tue Dec  9 10:52:53 2014, MaxMem=  3758096384 cpu:         4.9
 (Enter /global/apps/gaussian/09.d01/l103.exe)

 GradGradGradGradGradGradGradGradGradGradGradGradGradGradGradGradGradGrad
 Berny optimization.
 Initialization pass.
                           ----------------------------
                           !    Initial Parameters    !
                           ! (Angstroms and Degrees)  !
 --------------------------                            --------------------------
 ! Name  Definition              Value          Derivative Info.                !
 --------------------------------------------------------------------------------
 ! R1    R(1,2)                  1.8171         calculate D2E/DX2 analytically  !
 ! R2    R(1,3)                  2.4117         calculate D2E/DX2 analytically  !
 ! R3    R(1,4)                  2.4329         calculate D2E/DX2 analytically  !
 ! R4    R(1,7)                  1.9654         calculate D2E/DX2 analytically  !
 ! R5    R(2,5)                  1.0944         calculate D2E/DX2 analytically  !
 ! R6    R(2,6)                  1.1109         calculate D2E/DX2 analytically  !
 ! R7    R(7,8)                  1.3961         calculate D2E/DX2 analytically  !
 ! R8    R(7,9)                  1.3776         calculate D2E/DX2 analytically  !
 ! R9    R(8,10)                 1.4665         calculate D2E/DX2 analytically  !
 ! R10   R(8,11)                 1.5627         calculate D2E/DX2 analytically  !
 ! R11   R(9,19)                 1.556          calculate D2E/DX2 analytically  !
 ! R12   R(9,20)                 1.4537         calculate D2E/DX2 analytically  !
 ! R13   R(10,12)                1.434          calculate D2E/DX2 analytically  !
 ! R14   R(10,13)                1.4191         calculate D2E/DX2 analytically  !
 ! R15   R(11,19)                1.6151         calculate D2E/DX2 analytically  !
 ! R16   R(11,38)                1.5756         calculate D2E/DX2 analytically  !
 ! R17   R(11,45)                1.5601         calculate D2E/DX2 analytically  !
 ! R18   R(12,14)                1.4305         calculate D2E/DX2 analytically  !
 ! R19   R(12,66)                1.5083         calculate D2E/DX2 analytically  !
 ! R20   R(13,17)                1.4001         calculate D2E/DX2 analytically  !
 ! R21   R(13,77)                1.0887         calculate D2E/DX2 analytically  !
 ! R22   R(14,15)                1.4085         calculate D2E/DX2 analytically  !
 ! R23   R(14,16)                1.0883         calculate D2E/DX2 analytically  !
 ! R24   R(15,17)                1.4099         calculate D2E/DX2 analytically  !
 ! R25   R(15,78)                1.5336         calculate D2E/DX2 analytically  !
 ! R26   R(17,18)                1.09           calculate D2E/DX2 analytically  !
 ! R27   R(19,52)                1.5629         calculate D2E/DX2 analytically  !
 ! R28   R(19,59)                1.5736         calculate D2E/DX2 analytically  !
 ! R29   R(20,21)                1.435          calculate D2E/DX2 analytically  !
 ! R30   R(20,22)                1.4137         calculate D2E/DX2 analytically  !
 ! R31   R(21,23)                1.4248         calculate D2E/DX2 analytically  !
 ! R32   R(21,88)                1.505          calculate D2E/DX2 analytically  !
 ! R33   R(22,26)                1.4013         calculate D2E/DX2 analytically  !
 ! R34   R(22,99)                1.0863         calculate D2E/DX2 analytically  !
 ! R35   R(23,24)                1.4119         calculate D2E/DX2 analytically  !
 ! R36   R(23,25)                1.0903         calculate D2E/DX2 analytically  !
 ! R37   R(24,26)                1.4136         calculate D2E/DX2 analytically  !
 ! R38   R(24,28)                1.535          calculate D2E/DX2 analytically  !
 ! R39   R(26,27)                1.0898         calculate D2E/DX2 analytically  !
 ! R40   R(28,29)                1.5551         calculate D2E/DX2 analytically  !
 ! R41   R(28,30)                1.5537         calculate D2E/DX2 analytically  !
 ! R42   R(28,31)                1.1029         calculate D2E/DX2 analytically  !
 ! R43   R(29,32)                1.101          calculate D2E/DX2 analytically  !
 ! R44   R(29,33)                1.1001         calculate D2E/DX2 analytically  !
 ! R45   R(29,34)                1.1003         calculate D2E/DX2 analytically  !
 ! R46   R(30,35)                1.1006         calculate D2E/DX2 analytically  !
 ! R47   R(30,36)                1.1009         calculate D2E/DX2 analytically  !
 ! R48   R(30,37)                1.0999         calculate D2E/DX2 analytically  !
 ! R49   R(38,39)                1.5526         calculate D2E/DX2 analytically  !
 ! R50   R(38,40)                1.0908         calculate D2E/DX2 analytically  !
 ! R51   R(38,41)                1.1            calculate D2E/DX2 analytically  !
 ! R52   R(39,42)                1.0986         calculate D2E/DX2 analytically  !
 ! R53   R(39,43)                1.0968         calculate D2E/DX2 analytically  !
 ! R54   R(39,44)                1.1014         calculate D2E/DX2 analytically  !
 ! R55   R(45,46)                1.5456         calculate D2E/DX2 analytically  !
 ! R56   R(45,47)                1.0997         calculate D2E/DX2 analytically  !
 ! R57   R(45,48)                1.0952         calculate D2E/DX2 analytically  !
 ! R58   R(46,49)                1.0923         calculate D2E/DX2 analytically  !
 ! R59   R(46,50)                1.1019         calculate D2E/DX2 analytically  !
 ! R60   R(46,51)                1.0956         calculate D2E/DX2 analytically  !
 ! R61   R(52,53)                1.5497         calculate D2E/DX2 analytically  !
 ! R62   R(52,54)                1.1            calculate D2E/DX2 analytically  !
 ! R63   R(52,55)                1.0954         calculate D2E/DX2 analytically  !
 ! R64   R(53,56)                1.0918         calculate D2E/DX2 analytically  !
 ! R65   R(53,57)                1.102          calculate D2E/DX2 analytically  !
 ! R66   R(53,58)                1.0974         calculate D2E/DX2 analytically  !
 ! R67   R(59,60)                1.5552         calculate D2E/DX2 analytically  !
 ! R68   R(59,61)                1.0922         calculate D2E/DX2 analytically  !
 ! R69   R(59,62)                1.0969         calculate D2E/DX2 analytically  !
 ! R70   R(60,63)                1.0979         calculate D2E/DX2 analytically  !
 ! R71   R(60,64)                1.0956         calculate D2E/DX2 analytically  !
 ! R72   R(60,65)                1.1014         calculate D2E/DX2 analytically  !
 ! R73   R(66,67)                1.4255         calculate D2E/DX2 analytically  !
 ! R74   R(66,68)                1.419          calculate D2E/DX2 analytically  !
 ! R75   R(67,69)                1.4083         calculate D2E/DX2 analytically  !
 ! R76   R(67,70)                1.0885         calculate D2E/DX2 analytically  !
 ! R77   R(68,73)                1.4099         calculate D2E/DX2 analytically  !
 ! R78   R(68,76)                1.0905         calculate D2E/DX2 analytically  !
 ! R79   R(69,71)                1.411          calculate D2E/DX2 analytically  !
 ! R80   R(69,72)                1.0916         calculate D2E/DX2 analytically  !
 ! R81   R(71,73)                1.4084         calculate D2E/DX2 analytically  !
 ! R82   R(71,74)                1.0915         calculate D2E/DX2 analytically  !
 ! R83   R(73,75)                1.0906         calculate D2E/DX2 analytically  !
 ! R84   R(78,79)                1.5546         calculate D2E/DX2 analytically  !
 ! R85   R(78,80)                1.5538         calculate D2E/DX2 analytically  !
 ! R86   R(78,81)                1.1031         calculate D2E/DX2 analytically  !
 ! R87   R(79,82)                1.0997         calculate D2E/DX2 analytically  !
 ! R88   R(79,83)                1.1012         calculate D2E/DX2 analytically  !
 ! R89   R(79,84)                1.0997         calculate D2E/DX2 analytically  !
 ! R90   R(80,85)                1.1003         calculate D2E/DX2 analytically  !
 ! R91   R(80,86)                1.1006         calculate D2E/DX2 analytically  !
 ! R92   R(80,87)                1.1011         calculate D2E/DX2 analytically  !
 ! R93   R(88,89)                1.4216         calculate D2E/DX2 analytically  !
 ! R94   R(88,90)                1.4204         calculate D2E/DX2 analytically  !
 ! R95   R(89,91)                1.4092         calculate D2E/DX2 analytically  !
 ! R96   R(89,92)                1.0907         calculate D2E/DX2 analytically  !
 ! R97   R(90,95)                1.4089         calculate D2E/DX2 analytically  !
 ! R98   R(90,98)                1.0846         calculate D2E/DX2 analytically  !
 ! R99   R(91,93)                1.4103         calculate D2E/DX2 analytically  !
 ! R100  R(91,94)                1.0917         calculate D2E/DX2 analytically  !
 ! R101  R(93,95)                1.4111         calculate D2E/DX2 analytically  !
 ! R102  R(93,96)                1.0913         calculate D2E/DX2 analytically  !
 ! R103  R(95,97)                1.0911         calculate D2E/DX2 analytically  !
 ! A1    A(2,1,3)               96.8111         calculate D2E/DX2 analytically  !
 ! A2    A(2,1,4)              100.1115         calculate D2E/DX2 analytically  !
 ! A3    A(2,1,7)              105.9747         calculate D2E/DX2 analytically  !
 ! A4    A(3,1,4)              148.7994         calculate D2E/DX2 analytically  !
 ! A5    A(3,1,7)              106.1647         calculate D2E/DX2 analytically  !
 ! A6    A(4,1,7)               94.1295         calculate D2E/DX2 analytically  !
 ! A7    A(1,2,5)              129.2407         calculate D2E/DX2 analytically  !
 ! A8    A(1,2,6)              114.5356         calculate D2E/DX2 analytically  !
 ! A9    A(5,2,6)              116.2228         calculate D2E/DX2 analytically  !
 ! A10   A(1,7,8)              119.9918         calculate D2E/DX2 analytically  !
 ! A11   A(1,7,9)              130.1296         calculate D2E/DX2 analytically  !
 ! A12   A(8,7,9)              109.093          calculate D2E/DX2 analytically  !
 ! A13   A(7,8,10)             123.0884         calculate D2E/DX2 analytically  !
 ! A14   A(7,8,11)             109.9353         calculate D2E/DX2 analytically  !
 ! A15   A(10,8,11)            124.6628         calculate D2E/DX2 analytically  !
 ! A16   A(7,9,19)             112.4641         calculate D2E/DX2 analytically  !
 ! A17   A(7,9,20)             124.0869         calculate D2E/DX2 analytically  !
 ! A18   A(19,9,20)            122.8914         calculate D2E/DX2 analytically  !
 ! A19   A(8,10,12)            127.2372         calculate D2E/DX2 analytically  !
 ! A20   A(8,10,13)            114.1726         calculate D2E/DX2 analytically  !
 ! A21   A(12,10,13)           118.5288         calculate D2E/DX2 analytically  !
 ! A22   A(8,11,19)             99.8788         calculate D2E/DX2 analytically  !
 ! A23   A(8,11,38)            104.8074         calculate D2E/DX2 analytically  !
 ! A24   A(8,11,45)            114.3248         calculate D2E/DX2 analytically  !
 ! A25   A(19,11,38)           114.848          calculate D2E/DX2 analytically  !
 ! A26   A(19,11,45)           110.3515         calculate D2E/DX2 analytically  !
 ! A27   A(38,11,45)           112.0422         calculate D2E/DX2 analytically  !
 ! A28   A(10,12,14)           116.4623         calculate D2E/DX2 analytically  !
 ! A29   A(10,12,66)           127.4744         calculate D2E/DX2 analytically  !
 ! A30   A(14,12,66)           116.0334         calculate D2E/DX2 analytically  !
 ! A31   A(10,13,17)           123.1059         calculate D2E/DX2 analytically  !
 ! A32   A(10,13,77)           118.0327         calculate D2E/DX2 analytically  !
 ! A33   A(17,13,77)           118.8608         calculate D2E/DX2 analytically  !
 ! A34   A(12,14,15)           124.9176         calculate D2E/DX2 analytically  !
 ! A35   A(12,14,16)           117.2454         calculate D2E/DX2 analytically  !
 ! A36   A(15,14,16)           117.7873         calculate D2E/DX2 analytically  !
 ! A37   A(14,15,17)           117.0641         calculate D2E/DX2 analytically  !
 ! A38   A(14,15,78)           120.6158         calculate D2E/DX2 analytically  !
 ! A39   A(17,15,78)           122.3122         calculate D2E/DX2 analytically  !
 ! A40   A(13,17,15)           119.9178         calculate D2E/DX2 analytically  !
 ! A41   A(13,17,18)           119.0825         calculate D2E/DX2 analytically  !
 ! A42   A(15,17,18)           120.9921         calculate D2E/DX2 analytically  !
 ! A43   A(9,19,11)             99.6313         calculate D2E/DX2 analytically  !
 ! A44   A(9,19,52)            112.4593         calculate D2E/DX2 analytically  !
 ! A45   A(9,19,59)            105.9243         calculate D2E/DX2 analytically  !
 ! A46   A(11,19,52)           111.4886         calculate D2E/DX2 analytically  !
 ! A47   A(11,19,59)           115.5496         calculate D2E/DX2 analytically  !
 ! A48   A(52,19,59)           111.1537         calculate D2E/DX2 analytically  !
 ! A49   A(9,20,21)            124.0045         calculate D2E/DX2 analytically  !
 ! A50   A(9,20,22)            116.8763         calculate D2E/DX2 analytically  !
 ! A51   A(21,20,22)           119.0979         calculate D2E/DX2 analytically  !
 ! A52   A(20,21,23)           117.0025         calculate D2E/DX2 analytically  !
 ! A53   A(20,21,88)           126.7931         calculate D2E/DX2 analytically  !
 ! A54   A(23,21,88)           116.1959         calculate D2E/DX2 analytically  !
 ! A55   A(20,22,26)           122.1538         calculate D2E/DX2 analytically  !
 ! A56   A(20,22,99)           118.4216         calculate D2E/DX2 analytically  !
 ! A57   A(26,22,99)           119.3819         calculate D2E/DX2 analytically  !
 ! A58   A(21,23,24)           124.0797         calculate D2E/DX2 analytically  !
 ! A59   A(21,23,25)           117.5722         calculate D2E/DX2 analytically  !
 ! A60   A(24,23,25)           118.3005         calculate D2E/DX2 analytically  !
 ! A61   A(23,24,26)           117.2262         calculate D2E/DX2 analytically  !
 ! A62   A(23,24,28)           120.5213         calculate D2E/DX2 analytically  !
 ! A63   A(26,24,28)           122.2255         calculate D2E/DX2 analytically  !
 ! A64   A(22,26,24)           120.4279         calculate D2E/DX2 analytically  !
 ! A65   A(22,26,27)           118.7498         calculate D2E/DX2 analytically  !
 ! A66   A(24,26,27)           120.8171         calculate D2E/DX2 analytically  !
 ! A67   A(24,28,29)           111.5532         calculate D2E/DX2 analytically  !
 ! A68   A(24,28,30)           112.186          calculate D2E/DX2 analytically  !
 ! A69   A(24,28,31)           107.3855         calculate D2E/DX2 analytically  !
 ! A70   A(29,28,30)           111.187          calculate D2E/DX2 analytically  !
 ! A71   A(29,28,31)           107.2068         calculate D2E/DX2 analytically  !
 ! A72   A(30,28,31)           107.0111         calculate D2E/DX2 analytically  !
 ! A73   A(28,29,32)           110.4517         calculate D2E/DX2 analytically  !
 ! A74   A(28,29,33)           111.1122         calculate D2E/DX2 analytically  !
 ! A75   A(28,29,34)           111.4327         calculate D2E/DX2 analytically  !
 ! A76   A(32,29,33)           108.1626         calculate D2E/DX2 analytically  !
 ! A77   A(32,29,34)           107.8308         calculate D2E/DX2 analytically  !
 ! A78   A(33,29,34)           107.7113         calculate D2E/DX2 analytically  !
 ! A79   A(28,30,35)           111.1375         calculate D2E/DX2 analytically  !
 ! A80   A(28,30,36)           110.2985         calculate D2E/DX2 analytically  !
 ! A81   A(28,30,37)           111.7247         calculate D2E/DX2 analytically  !
 ! A82   A(35,30,36)           107.9891         calculate D2E/DX2 analytically  !
 ! A83   A(35,30,37)           107.8786         calculate D2E/DX2 analytically  !
 ! A84   A(36,30,37)           107.6599         calculate D2E/DX2 analytically  !
 ! A85   A(11,38,39)           121.0717         calculate D2E/DX2 analytically  !
 ! A86   A(11,38,40)           104.9288         calculate D2E/DX2 analytically  !
 ! A87   A(11,38,41)           108.305          calculate D2E/DX2 analytically  !
 ! A88   A(39,38,40)           107.0909         calculate D2E/DX2 analytically  !
 ! A89   A(39,38,41)           109.2823         calculate D2E/DX2 analytically  !
 ! A90   A(40,38,41)           104.961          calculate D2E/DX2 analytically  !
 ! A91   A(38,39,42)           113.142          calculate D2E/DX2 analytically  !
 ! A92   A(38,39,43)           113.3554         calculate D2E/DX2 analytically  !
 ! A93   A(38,39,44)           108.4614         calculate D2E/DX2 analytically  !
 ! A94   A(42,39,43)           107.5471         calculate D2E/DX2 analytically  !
 ! A95   A(42,39,44)           106.9355         calculate D2E/DX2 analytically  !
 ! A96   A(43,39,44)           107.0434         calculate D2E/DX2 analytically  !
 ! A97   A(11,45,46)           121.7357         calculate D2E/DX2 analytically  !
 ! A98   A(11,45,47)           104.9573         calculate D2E/DX2 analytically  !
 ! A99   A(11,45,48)           108.7178         calculate D2E/DX2 analytically  !
 ! A100  A(46,45,47)           106.9103         calculate D2E/DX2 analytically  !
 ! A101  A(46,45,48)           107.2714         calculate D2E/DX2 analytically  !
 ! A102  A(47,45,48)           106.2938         calculate D2E/DX2 analytically  !
 ! A103  A(45,46,49)           112.1818         calculate D2E/DX2 analytically  !
 ! A104  A(45,46,50)           108.2157         calculate D2E/DX2 analytically  !
 ! A105  A(45,46,51)           113.5572         calculate D2E/DX2 analytically  !
 ! A106  A(49,46,50)           107.2646         calculate D2E/DX2 analytically  !
 ! A107  A(49,46,51)           107.6813         calculate D2E/DX2 analytically  !
 ! A108  A(50,46,51)           107.6712         calculate D2E/DX2 analytically  !
 ! A109  A(19,52,53)           120.3343         calculate D2E/DX2 analytically  !
 ! A110  A(19,52,54)           105.692          calculate D2E/DX2 analytically  !
 ! A111  A(19,52,55)           108.8833         calculate D2E/DX2 analytically  !
 ! A112  A(53,52,54)           106.948          calculate D2E/DX2 analytically  !
 ! A113  A(53,52,55)           108.1538         calculate D2E/DX2 analytically  !
 ! A114  A(54,52,55)           105.9337         calculate D2E/DX2 analytically  !
 ! A115  A(52,53,56)           113.155          calculate D2E/DX2 analytically  !
 ! A116  A(52,53,57)           108.2427         calculate D2E/DX2 analytically  !
 ! A117  A(52,53,58)           112.8625         calculate D2E/DX2 analytically  !
 ! A118  A(56,53,57)           107.2118         calculate D2E/DX2 analytically  !
 ! A119  A(56,53,58)           107.8455         calculate D2E/DX2 analytically  !
 ! A120  A(57,53,58)           107.2171         calculate D2E/DX2 analytically  !
 ! A121  A(19,59,60)           121.1653         calculate D2E/DX2 analytically  !
 ! A122  A(19,59,61)           104.7797         calculate D2E/DX2 analytically  !
 ! A123  A(19,59,62)           109.0005         calculate D2E/DX2 analytically  !
 ! A124  A(60,59,61)           106.7214         calculate D2E/DX2 analytically  !
 ! A125  A(60,59,62)           108.9248         calculate D2E/DX2 analytically  !
 ! A126  A(61,59,62)           105.0259         calculate D2E/DX2 analytically  !
 ! A127  A(59,60,63)           113.4616         calculate D2E/DX2 analytically  !
 ! A128  A(59,60,64)           113.1395         calculate D2E/DX2 analytically  !
 ! A129  A(59,60,65)           108.4107         calculate D2E/DX2 analytically  !
 ! A130  A(63,60,64)           107.4867         calculate D2E/DX2 analytically  !
 ! A131  A(63,60,65)           107.023          calculate D2E/DX2 analytically  !
 ! A132  A(64,60,65)           106.9589         calculate D2E/DX2 analytically  !
 ! A133  A(12,66,67)           120.8542         calculate D2E/DX2 analytically  !
 ! A134  A(12,66,68)           121.8395         calculate D2E/DX2 analytically  !
 ! A135  A(67,66,68)           117.2174         calculate D2E/DX2 analytically  !
 ! A136  A(66,67,69)           121.4721         calculate D2E/DX2 analytically  !
 ! A137  A(66,67,70)           119.6704         calculate D2E/DX2 analytically  !
 ! A138  A(69,67,70)           118.8378         calculate D2E/DX2 analytically  !
 ! A139  A(66,68,73)           121.3389         calculate D2E/DX2 analytically  !
 ! A140  A(66,68,76)           120.5805         calculate D2E/DX2 analytically  !
 ! A141  A(73,68,76)           118.0724         calculate D2E/DX2 analytically  !
 ! A142  A(67,69,71)           120.3518         calculate D2E/DX2 analytically  !
 ! A143  A(67,69,72)           119.5661         calculate D2E/DX2 analytically  !
 ! A144  A(71,69,72)           120.0816         calculate D2E/DX2 analytically  !
 ! A145  A(69,71,73)           118.9816         calculate D2E/DX2 analytically  !
 ! A146  A(69,71,74)           120.4902         calculate D2E/DX2 analytically  !
 ! A147  A(73,71,74)           120.5279         calculate D2E/DX2 analytically  !
 ! A148  A(68,73,71)           120.6333         calculate D2E/DX2 analytically  !
 ! A149  A(68,73,75)           118.9646         calculate D2E/DX2 analytically  !
 ! A150  A(71,73,75)           120.4018         calculate D2E/DX2 analytically  !
 ! A151  A(15,78,79)           111.6453         calculate D2E/DX2 analytically  !
 ! A152  A(15,78,80)           112.3542         calculate D2E/DX2 analytically  !
 ! A153  A(15,78,81)           107.1926         calculate D2E/DX2 analytically  !
 ! A154  A(79,78,80)           111.3668         calculate D2E/DX2 analytically  !
 ! A155  A(79,78,81)           106.9547         calculate D2E/DX2 analytically  !
 ! A156  A(80,78,81)           106.9713         calculate D2E/DX2 analytically  !
 ! A157  A(78,79,82)           111.5426         calculate D2E/DX2 analytically  !
 ! A158  A(78,79,83)           110.342          calculate D2E/DX2 analytically  !
 ! A159  A(78,79,84)           111.0724         calculate D2E/DX2 analytically  !
 ! A160  A(82,79,83)           107.8269         calculate D2E/DX2 analytically  !
 ! A161  A(82,79,84)           107.6873         calculate D2E/DX2 analytically  !
 ! A162  A(83,79,84)           108.2326         calculate D2E/DX2 analytically  !
 ! A163  A(78,80,85)           111.6823         calculate D2E/DX2 analytically  !
 ! A164  A(78,80,86)           111.2137         calculate D2E/DX2 analytically  !
 ! A165  A(78,80,87)           110.2674         calculate D2E/DX2 analytically  !
 ! A166  A(85,80,86)           107.8649         calculate D2E/DX2 analytically  !
 ! A167  A(85,80,87)           107.6134         calculate D2E/DX2 analytically  !
 ! A168  A(86,80,87)           108.0465         calculate D2E/DX2 analytically  !
 ! A169  A(21,88,89)           119.3491         calculate D2E/DX2 analytically  !
 ! A170  A(21,88,90)           122.7731         calculate D2E/DX2 analytically  !
 ! A171  A(89,88,90)           117.739          calculate D2E/DX2 analytically  !
 ! A172  A(88,89,91)           121.3409         calculate D2E/DX2 analytically  !
 ! A173  A(88,89,92)           119.6231         calculate D2E/DX2 analytically  !
 ! A174  A(91,89,92)           119.0317         calculate D2E/DX2 analytically  !
 ! A175  A(88,90,95)           120.9072         calculate D2E/DX2 analytically  !
 ! A176  A(88,90,98)           120.4809         calculate D2E/DX2 analytically  !
 ! A177  A(95,90,98)           118.6086         calculate D2E/DX2 analytically  !
 ! A178  A(89,91,93)           120.2012         calculate D2E/DX2 analytically  !
 ! A179  A(89,91,94)           119.636          calculate D2E/DX2 analytically  !
 ! A180  A(93,91,94)           120.1623         calculate D2E/DX2 analytically  !
 ! A181  A(91,93,95)           119.1354         calculate D2E/DX2 analytically  !
 ! A182  A(91,93,96)           120.3861         calculate D2E/DX2 analytically  !
 ! A183  A(95,93,96)           120.4779         calculate D2E/DX2 analytically  !
 ! A184  A(90,95,93)           120.6638         calculate D2E/DX2 analytically  !
 ! A185  A(90,95,97)           119.0824         calculate D2E/DX2 analytically  !
 ! A186  A(93,95,97)           120.2521         calculate D2E/DX2 analytically  !
 ! D1    D(3,1,2,5)            104.848          calculate D2E/DX2 analytically  !
 ! D2    D(3,1,2,6)            -75.5116         calculate D2E/DX2 analytically  !
 ! D3    D(4,1,2,5)           -101.4722         calculate D2E/DX2 analytically  !
 ! D4    D(4,1,2,6)             78.1682         calculate D2E/DX2 analytically  !
 ! D5    D(7,1,2,5)             -4.1679         calculate D2E/DX2 analytically  !
 ! D6    D(7,1,2,6)            175.4724         calculate D2E/DX2 analytically  !
 ! D7    D(2,1,7,8)            168.7788         calculate D2E/DX2 analytically  !
 ! D8    D(2,1,7,9)            -22.5603         calculate D2E/DX2 analytically  !
 ! D9    D(3,1,7,8)             66.5734         calculate D2E/DX2 analytically  !
 ! D10   D(3,1,7,9)           -124.7657         calculate D2E/DX2 analytically  !
 ! D11   D(4,1,7,8)            -89.4643         calculate D2E/DX2 analytically  !
 ! D12   D(4,1,7,9)             79.1966         calculate D2E/DX2 analytically  !
 ! D13   D(1,7,8,10)           -43.4025         calculate D2E/DX2 analytically  !
 ! D14   D(1,7,8,11)           153.1754         calculate D2E/DX2 analytically  !
 ! D15   D(9,7,8,10)           145.7511         calculate D2E/DX2 analytically  !
 ! D16   D(9,7,8,11)           -17.671          calculate D2E/DX2 analytically  !
 ! D17   D(1,7,9,19)          -172.045          calculate D2E/DX2 analytically  !
 ! D18   D(1,7,9,20)            -0.412          calculate D2E/DX2 analytically  !
 ! D19   D(8,7,9,19)            -2.4265         calculate D2E/DX2 analytically  !
 ! D20   D(8,7,9,20)           169.2065         calculate D2E/DX2 analytically  !
 ! D21   D(7,8,10,12)          115.481          calculate D2E/DX2 analytically  !
 ! D22   D(7,8,10,13)          -67.4345         calculate D2E/DX2 analytically  !
 ! D23   D(11,8,10,12)         -83.5513         calculate D2E/DX2 analytically  !
 ! D24   D(11,8,10,13)          93.5333         calculate D2E/DX2 analytically  !
 ! D25   D(7,8,11,19)           28.793          calculate D2E/DX2 analytically  !
 ! D26   D(7,8,11,38)          -90.3653         calculate D2E/DX2 analytically  !
 ! D27   D(7,8,11,45)          146.5761         calculate D2E/DX2 analytically  !
 ! D28   D(10,8,11,19)        -134.3113         calculate D2E/DX2 analytically  !
 ! D29   D(10,8,11,38)         106.5305         calculate D2E/DX2 analytically  !
 ! D30   D(10,8,11,45)         -16.5281         calculate D2E/DX2 analytically  !
 ! D31   D(7,9,19,11)           19.9038         calculate D2E/DX2 analytically  !
 ! D32   D(7,9,19,52)          138.0809         calculate D2E/DX2 analytically  !
 ! D33   D(7,9,19,59)         -100.317          calculate D2E/DX2 analytically  !
 ! D34   D(20,9,19,11)        -151.8448         calculate D2E/DX2 analytically  !
 ! D35   D(20,9,19,52)         -33.6676         calculate D2E/DX2 analytically  !
 ! D36   D(20,9,19,59)          87.9345         calculate D2E/DX2 analytically  !
 ! D37   D(7,9,20,21)          101.2787         calculate D2E/DX2 analytically  !
 ! D38   D(7,9,20,22)          -80.422          calculate D2E/DX2 analytically  !
 ! D39   D(19,9,20,21)         -87.9364         calculate D2E/DX2 analytically  !
 ! D40   D(19,9,20,22)          90.3629         calculate D2E/DX2 analytically  !
 ! D41   D(8,10,12,14)         177.2531         calculate D2E/DX2 analytically  !
 ! D42   D(8,10,12,66)          -0.6679         calculate D2E/DX2 analytically  !
 ! D43   D(13,10,12,14)          0.2805         calculate D2E/DX2 analytically  !
 ! D44   D(13,10,12,66)       -177.6404         calculate D2E/DX2 analytically  !
 ! D45   D(8,10,13,17)        -177.703          calculate D2E/DX2 analytically  !
 ! D46   D(8,10,13,77)           2.5782         calculate D2E/DX2 analytically  !
 ! D47   D(12,10,13,17)         -0.3446         calculate D2E/DX2 analytically  !
 ! D48   D(12,10,13,77)        179.9365         calculate D2E/DX2 analytically  !
 ! D49   D(8,11,19,9)          -26.8782         calculate D2E/DX2 analytically  !
 ! D50   D(8,11,19,52)        -145.7756         calculate D2E/DX2 analytically  !
 ! D51   D(8,11,19,59)          86.0498         calculate D2E/DX2 analytically  !
 ! D52   D(38,11,19,9)          84.6233         calculate D2E/DX2 analytically  !
 ! D53   D(38,11,19,52)        -34.2741         calculate D2E/DX2 analytically  !
 ! D54   D(38,11,19,59)       -162.4486         calculate D2E/DX2 analytically  !
 ! D55   D(45,11,19,9)        -147.5783         calculate D2E/DX2 analytically  !
 ! D56   D(45,11,19,52)         93.5244         calculate D2E/DX2 analytically  !
 ! D57   D(45,11,19,59)        -34.6502         calculate D2E/DX2 analytically  !
 ! D58   D(8,11,38,39)        -172.3393         calculate D2E/DX2 analytically  !
 ! D59   D(8,11,38,40)         -51.2911         calculate D2E/DX2 analytically  !
 ! D60   D(8,11,38,41)          60.4012         calculate D2E/DX2 analytically  !
 ! D61   D(19,11,38,39)         79.1201         calculate D2E/DX2 analytically  !
 ! D62   D(19,11,38,40)       -159.8317         calculate D2E/DX2 analytically  !
 ! D63   D(19,11,38,41)        -48.1394         calculate D2E/DX2 analytically  !
 ! D64   D(45,11,38,39)        -47.8198         calculate D2E/DX2 analytically  !
 ! D65   D(45,11,38,40)         73.2285         calculate D2E/DX2 analytically  !
 ! D66   D(45,11,38,41)       -175.0793         calculate D2E/DX2 analytically  !
 ! D67   D(8,11,45,46)          73.8297         calculate D2E/DX2 analytically  !
 ! D68   D(8,11,45,47)        -164.8897         calculate D2E/DX2 analytically  !
 ! D69   D(8,11,45,48)         -51.4904         calculate D2E/DX2 analytically  !
 ! D70   D(19,11,45,46)       -174.5477         calculate D2E/DX2 analytically  !
 ! D71   D(19,11,45,47)        -53.2671         calculate D2E/DX2 analytically  !
 ! D72   D(19,11,45,48)         60.1322         calculate D2E/DX2 analytically  !
 ! D73   D(38,11,45,46)        -45.2228         calculate D2E/DX2 analytically  !
 ! D74   D(38,11,45,47)         76.0578         calculate D2E/DX2 analytically  !
 ! D75   D(38,11,45,48)       -170.5428         calculate D2E/DX2 analytically  !
 ! D76   D(10,12,14,15)          0.205          calculate D2E/DX2 analytically  !
 ! D77   D(10,12,14,16)        177.5767         calculate D2E/DX2 analytically  !
 ! D78   D(66,12,14,15)        178.3688         calculate D2E/DX2 analytically  !
 ! D79   D(66,12,14,16)         -4.2594         calculate D2E/DX2 analytically  !
 ! D80   D(10,12,66,67)        135.5821         calculate D2E/DX2 analytically  !
 ! D81   D(10,12,66,68)        -47.9422         calculate D2E/DX2 analytically  !
 ! D82   D(14,12,66,67)        -42.3466         calculate D2E/DX2 analytically  !
 ! D83   D(14,12,66,68)        134.1292         calculate D2E/DX2 analytically  !
 ! D84   D(10,13,17,15)         -0.0865         calculate D2E/DX2 analytically  !
 ! D85   D(10,13,17,18)       -179.0919         calculate D2E/DX2 analytically  !
 ! D86   D(77,13,17,15)        179.6302         calculate D2E/DX2 analytically  !
 ! D87   D(77,13,17,18)          0.6247         calculate D2E/DX2 analytically  !
 ! D88   D(12,14,15,17)         -0.6237         calculate D2E/DX2 analytically  !
 ! D89   D(12,14,15,78)        178.3787         calculate D2E/DX2 analytically  !
 ! D90   D(16,14,15,17)       -177.9825         calculate D2E/DX2 analytically  !
 ! D91   D(16,14,15,78)          1.0199         calculate D2E/DX2 analytically  !
 ! D92   D(14,15,17,13)          0.5473         calculate D2E/DX2 analytically  !
 ! D93   D(14,15,17,18)        179.5334         calculate D2E/DX2 analytically  !
 ! D94   D(78,15,17,13)       -178.4369         calculate D2E/DX2 analytically  !
 ! D95   D(78,15,17,18)          0.5492         calculate D2E/DX2 analytically  !
 ! D96   D(14,15,78,79)       -114.8218         calculate D2E/DX2 analytically  !
 ! D97   D(14,15,78,80)        119.2321         calculate D2E/DX2 analytically  !
 ! D98   D(14,15,78,81)          1.9989         calculate D2E/DX2 analytically  !
 ! D99   D(17,15,78,79)         64.1271         calculate D2E/DX2 analytically  !
 ! D100  D(17,15,78,80)        -61.819          calculate D2E/DX2 analytically  !
 ! D101  D(17,15,78,81)       -179.0522         calculate D2E/DX2 analytically  !
 ! D102  D(9,19,52,53)          76.981          calculate D2E/DX2 analytically  !
 ! D103  D(9,19,52,54)        -162.0076         calculate D2E/DX2 analytically  !
 ! D104  D(9,19,52,55)         -48.5876         calculate D2E/DX2 analytically  !
 ! D105  D(11,19,52,53)       -172.0844         calculate D2E/DX2 analytically  !
 ! D106  D(11,19,52,54)        -51.0729         calculate D2E/DX2 analytically  !
 ! D107  D(11,19,52,55)         62.347          calculate D2E/DX2 analytically  !
 ! D108  D(59,19,52,53)        -41.593          calculate D2E/DX2 analytically  !
 ! D109  D(59,19,52,54)         79.4185         calculate D2E/DX2 analytically  !
 ! D110  D(59,19,52,55)       -167.1616         calculate D2E/DX2 analytically  !
 ! D111  D(9,19,59,60)        -172.088          calculate D2E/DX2 analytically  !
 ! D112  D(9,19,59,61)         -51.6028         calculate D2E/DX2 analytically  !
 ! D113  D(9,19,59,62)          60.3859         calculate D2E/DX2 analytically  !
 ! D114  D(11,19,59,60)         78.6898         calculate D2E/DX2 analytically  !
 ! D115  D(11,19,59,61)       -160.825          calculate D2E/DX2 analytically  !
 ! D116  D(11,19,59,62)        -48.8363         calculate D2E/DX2 analytically  !
 ! D117  D(52,19,59,60)        -49.6506         calculate D2E/DX2 analytically  !
 ! D118  D(52,19,59,61)         70.8346         calculate D2E/DX2 analytically  !
 ! D119  D(52,19,59,62)       -177.1767         calculate D2E/DX2 analytically  !
 ! D120  D(9,20,21,23)         177.1684         calculate D2E/DX2 analytically  !
 ! D121  D(9,20,21,88)          -3.9377         calculate D2E/DX2 analytically  !
 ! D122  D(22,20,21,23)         -1.0955         calculate D2E/DX2 analytically  !
 ! D123  D(22,20,21,88)        177.7984         calculate D2E/DX2 analytically  !
 ! D124  D(9,20,22,26)        -177.7271         calculate D2E/DX2 analytically  !
 ! D125  D(9,20,22,99)           4.6668         calculate D2E/DX2 analytically  !
 ! D126  D(21,20,22,26)          0.6594         calculate D2E/DX2 analytically  !
 ! D127  D(21,20,22,99)       -176.9467         calculate D2E/DX2 analytically  !
 ! D128  D(20,21,23,24)          0.5715         calculate D2E/DX2 analytically  !
 ! D129  D(20,21,23,25)        178.0119         calculate D2E/DX2 analytically  !
 ! D130  D(88,21,23,24)       -178.4414         calculate D2E/DX2 analytically  !
 ! D131  D(88,21,23,25)         -1.001          calculate D2E/DX2 analytically  !
 ! D132  D(20,21,88,89)        134.44           calculate D2E/DX2 analytically  !
 ! D133  D(20,21,88,90)        -49.9446         calculate D2E/DX2 analytically  !
 ! D134  D(23,21,88,89)        -46.6584         calculate D2E/DX2 analytically  !
 ! D135  D(23,21,88,90)        128.9571         calculate D2E/DX2 analytically  !
 ! D136  D(20,22,26,24)          0.3827         calculate D2E/DX2 analytically  !
 ! D137  D(20,22,26,27)       -178.8011         calculate D2E/DX2 analytically  !
 ! D138  D(99,22,26,24)        177.9666         calculate D2E/DX2 analytically  !
 ! D139  D(99,22,26,27)         -1.2173         calculate D2E/DX2 analytically  !
 ! D140  D(21,23,24,26)          0.4294         calculate D2E/DX2 analytically  !
 ! D141  D(21,23,24,28)        178.5795         calculate D2E/DX2 analytically  !
 ! D142  D(25,23,24,26)       -176.9937         calculate D2E/DX2 analytically  !
 ! D143  D(25,23,24,28)          1.1564         calculate D2E/DX2 analytically  !
 ! D144  D(23,24,26,22)         -0.9074         calculate D2E/DX2 analytically  !
 ! D145  D(23,24,26,27)        178.2595         calculate D2E/DX2 analytically  !
 ! D146  D(28,24,26,22)       -179.0236         calculate D2E/DX2 analytically  !
 ! D147  D(28,24,26,27)          0.1433         calculate D2E/DX2 analytically  !
 ! D148  D(23,24,28,29)       -112.1612         calculate D2E/DX2 analytically  !
 ! D149  D(23,24,28,30)        122.3368         calculate D2E/DX2 analytically  !
 ! D150  D(23,24,28,31)          5.0298         calculate D2E/DX2 analytically  !
 ! D151  D(26,24,28,29)         65.8943         calculate D2E/DX2 analytically  !
 ! D152  D(26,24,28,30)        -59.6077         calculate D2E/DX2 analytically  !
 ! D153  D(26,24,28,31)       -176.9148         calculate D2E/DX2 analytically  !
 ! D154  D(24,28,29,32)        177.3826         calculate D2E/DX2 analytically  !
 ! D155  D(24,28,29,33)         57.3421         calculate D2E/DX2 analytically  !
 ! D156  D(24,28,29,34)        -62.7842         calculate D2E/DX2 analytically  !
 ! D157  D(30,28,29,32)        -56.5641         calculate D2E/DX2 analytically  !
 ! D158  D(30,28,29,33)       -176.6046         calculate D2E/DX2 analytically  !
 ! D159  D(30,28,29,34)         63.2691         calculate D2E/DX2 analytically  !
 ! D160  D(31,28,29,32)         60.0836         calculate D2E/DX2 analytically  !
 ! D161  D(31,28,29,33)        -59.9569         calculate D2E/DX2 analytically  !
 ! D162  D(31,28,29,34)        179.9168         calculate D2E/DX2 analytically  !
 ! D163  D(24,28,30,35)        -57.0865         calculate D2E/DX2 analytically  !
 ! D164  D(24,28,30,36)       -176.825          calculate D2E/DX2 analytically  !
 ! D165  D(24,28,30,37)         63.4681         calculate D2E/DX2 analytically  !
 ! D166  D(29,28,30,35)        177.2114         calculate D2E/DX2 analytically  !
 ! D167  D(29,28,30,36)         57.4729         calculate D2E/DX2 analytically  !
 ! D168  D(29,28,30,37)        -62.234          calculate D2E/DX2 analytically  !
 ! D169  D(31,28,30,35)         60.4439         calculate D2E/DX2 analytically  !
 ! D170  D(31,28,30,36)        -59.2946         calculate D2E/DX2 analytically  !
 ! D171  D(31,28,30,37)       -179.0014         calculate D2E/DX2 analytically  !
 ! D172  D(11,38,39,42)         37.5604         calculate D2E/DX2 analytically  !
 ! D173  D(11,38,39,43)        -85.2386         calculate D2E/DX2 analytically  !
 ! D174  D(11,38,39,44)        156.0279         calculate D2E/DX2 analytically  !
 ! D175  D(40,38,39,42)        -82.4354         calculate D2E/DX2 analytically  !
 ! D176  D(40,38,39,43)        154.7655         calculate D2E/DX2 analytically  !
 ! D177  D(40,38,39,44)         36.0321         calculate D2E/DX2 analytically  !
 ! D178  D(41,38,39,42)        164.3792         calculate D2E/DX2 analytically  !
 ! D179  D(41,38,39,43)         41.5802         calculate D2E/DX2 analytically  !
 ! D180  D(41,38,39,44)        -77.1533         calculate D2E/DX2 analytically  !
 ! D181  D(11,45,46,49)        -74.0016         calculate D2E/DX2 analytically  !
 ! D182  D(11,45,46,50)        167.8609         calculate D2E/DX2 analytically  !
 ! D183  D(11,45,46,51)         48.3819         calculate D2E/DX2 analytically  !
 ! D184  D(47,45,46,49)        165.6527         calculate D2E/DX2 analytically  !
 ! D185  D(47,45,46,50)         47.5152         calculate D2E/DX2 analytically  !
 ! D186  D(47,45,46,51)        -71.9638         calculate D2E/DX2 analytically  !
 ! D187  D(48,45,46,49)         51.9735         calculate D2E/DX2 analytically  !
 ! D188  D(48,45,46,50)        -66.164          calculate D2E/DX2 analytically  !
 ! D189  D(48,45,46,51)        174.357          calculate D2E/DX2 analytically  !
 ! D190  D(19,52,53,56)        -58.6625         calculate D2E/DX2 analytically  !
 ! D191  D(19,52,53,57)       -177.3365         calculate D2E/DX2 analytically  !
 ! D192  D(19,52,53,58)         64.1603         calculate D2E/DX2 analytically  !
 ! D193  D(54,52,53,56)       -179.0546         calculate D2E/DX2 analytically  !
 ! D194  D(54,52,53,57)         62.2713         calculate D2E/DX2 analytically  !
 ! D195  D(54,52,53,58)        -56.2319         calculate D2E/DX2 analytically  !
 ! D196  D(55,52,53,56)         67.2457         calculate D2E/DX2 analytically  !
 ! D197  D(55,52,53,57)        -51.4283         calculate D2E/DX2 analytically  !
 ! D198  D(55,52,53,58)       -169.9315         calculate D2E/DX2 analytically  !
 ! D199  D(19,59,60,63)         36.5322         calculate D2E/DX2 analytically  !
 ! D200  D(19,59,60,64)        -86.2672         calculate D2E/DX2 analytically  !
 ! D201  D(19,59,60,65)        155.2714         calculate D2E/DX2 analytically  !
 ! D202  D(61,59,60,63)        -83.0048         calculate D2E/DX2 analytically  !
 ! D203  D(61,59,60,64)        154.1958         calculate D2E/DX2 analytically  !
 ! D204  D(61,59,60,65)         35.7344         calculate D2E/DX2 analytically  !
 ! D205  D(62,59,60,63)        164.0922         calculate D2E/DX2 analytically  !
 ! D206  D(62,59,60,64)         41.2927         calculate D2E/DX2 analytically  !
 ! D207  D(62,59,60,65)        -77.1686         calculate D2E/DX2 analytically  !
 ! D208  D(12,66,67,69)        177.4026         calculate D2E/DX2 analytically  !
 ! D209  D(12,66,67,70)         -4.2341         calculate D2E/DX2 analytically  !
 ! D210  D(68,66,67,69)          0.7691         calculate D2E/DX2 analytically  !
 ! D211  D(68,66,67,70)        179.1324         calculate D2E/DX2 analytically  !
 ! D212  D(12,66,68,73)       -177.411          calculate D2E/DX2 analytically  !
 ! D213  D(12,66,68,76)          1.5332         calculate D2E/DX2 analytically  !
 ! D214  D(67,66,68,73)         -0.813          calculate D2E/DX2 analytically  !
 ! D215  D(67,66,68,76)        178.1312         calculate D2E/DX2 analytically  !
 ! D216  D(66,67,69,71)         -0.3039         calculate D2E/DX2 analytically  !
 ! D217  D(66,67,69,72)        179.4351         calculate D2E/DX2 analytically  !
 ! D218  D(70,67,69,71)       -178.6804         calculate D2E/DX2 analytically  !
 ! D219  D(70,67,69,72)          1.0585         calculate D2E/DX2 analytically  !
 ! D220  D(66,68,73,71)          0.3955         calculate D2E/DX2 analytically  !
 ! D221  D(66,68,73,75)       -179.8191         calculate D2E/DX2 analytically  !
 ! D222  D(76,68,73,71)       -178.5743         calculate D2E/DX2 analytically  !
 ! D223  D(76,68,73,75)          1.2111         calculate D2E/DX2 analytically  !
 ! D224  D(67,69,71,73)         -0.145          calculate D2E/DX2 analytically  !
 ! D225  D(67,69,71,74)       -179.9399         calculate D2E/DX2 analytically  !
 ! D226  D(72,69,71,73)       -179.8826         calculate D2E/DX2 analytically  !
 ! D227  D(72,69,71,74)          0.3225         calculate D2E/DX2 analytically  !
 ! D228  D(69,71,73,68)          0.1008         calculate D2E/DX2 analytically  !
 ! D229  D(69,71,73,75)       -179.6816         calculate D2E/DX2 analytically  !
 ! D230  D(74,71,73,68)        179.8956         calculate D2E/DX2 analytically  !
 ! D231  D(74,71,73,75)          0.1133         calculate D2E/DX2 analytically  !
 ! D232  D(15,78,79,82)        -63.3541         calculate D2E/DX2 analytically  !
 ! D233  D(15,78,79,83)        176.8187         calculate D2E/DX2 analytically  !
 ! D234  D(15,78,79,84)         56.7888         calculate D2E/DX2 analytically  !
 ! D235  D(80,78,79,82)         63.1329         calculate D2E/DX2 analytically  !
 ! D236  D(80,78,79,83)        -56.6943         calculate D2E/DX2 analytically  !
 ! D237  D(80,78,79,84)       -176.7242         calculate D2E/DX2 analytically  !
 ! D238  D(81,78,79,82)        179.6811         calculate D2E/DX2 analytically  !
 ! D239  D(81,78,79,83)         59.8539         calculate D2E/DX2 analytically  !
 ! D240  D(81,78,79,84)        -60.176          calculate D2E/DX2 analytically  !
 ! D241  D(15,78,80,85)         64.6341         calculate D2E/DX2 analytically  !
 ! D242  D(15,78,80,86)        -55.9267         calculate D2E/DX2 analytically  !
 ! D243  D(15,78,80,87)       -175.766          calculate D2E/DX2 analytically  !
 ! D244  D(79,78,80,85)        -61.4629         calculate D2E/DX2 analytically  !
 ! D245  D(79,78,80,86)        177.9763         calculate D2E/DX2 analytically  !
 ! D246  D(79,78,80,87)         58.137          calculate D2E/DX2 analytically  !
 ! D247  D(81,78,80,85)       -178.0009         calculate D2E/DX2 analytically  !
 ! D248  D(81,78,80,86)         61.4382         calculate D2E/DX2 analytically  !
 ! D249  D(81,78,80,87)        -58.4011         calculate D2E/DX2 analytically  !
 ! D250  D(21,88,89,91)        177.197          calculate D2E/DX2 analytically  !
 ! D251  D(21,88,89,92)         -3.5591         calculate D2E/DX2 analytically  !
 ! D252  D(90,88,89,91)          1.3619         calculate D2E/DX2 analytically  !
 ! D253  D(90,88,89,92)       -179.3942         calculate D2E/DX2 analytically  !
 ! D254  D(21,88,90,95)       -176.6782         calculate D2E/DX2 analytically  !
 ! D255  D(21,88,90,98)          2.6591         calculate D2E/DX2 analytically  !
 ! D256  D(89,88,90,95)         -0.9961         calculate D2E/DX2 analytically  !
 ! D257  D(89,88,90,98)        178.3412         calculate D2E/DX2 analytically  !
 ! D258  D(88,89,91,93)         -0.8962         calculate D2E/DX2 analytically  !
 ! D259  D(88,89,91,94)        179.3614         calculate D2E/DX2 analytically  !
 ! D260  D(92,89,91,93)        179.8556         calculate D2E/DX2 analytically  !
 ! D261  D(92,89,91,94)          0.1131         calculate D2E/DX2 analytically  !
 ! D262  D(88,90,95,93)          0.1686         calculate D2E/DX2 analytically  !
 ! D263  D(88,90,95,97)        179.6998         calculate D2E/DX2 analytically  !
 ! D264  D(98,90,95,93)       -179.1808         calculate D2E/DX2 analytically  !
 ! D265  D(98,90,95,97)          0.3503         calculate D2E/DX2 analytically  !
 ! D266  D(89,91,93,95)          0.0271         calculate D2E/DX2 analytically  !
 ! D267  D(89,91,93,96)       -179.7043         calculate D2E/DX2 analytically  !
 ! D268  D(94,91,93,95)        179.7682         calculate D2E/DX2 analytically  !
 ! D269  D(94,91,93,96)          0.0368         calculate D2E/DX2 analytically  !
 ! D270  D(91,93,95,90)          0.3314         calculate D2E/DX2 analytically  !
 ! D271  D(91,93,95,97)       -179.1943         calculate D2E/DX2 analytically  !
 ! D272  D(96,93,95,90)       -179.9374         calculate D2E/DX2 analytically  !
 ! D273  D(96,93,95,97)          0.5369         calculate D2E/DX2 analytically  !
 --------------------------------------------------------------------------------
 Trust Radius=3.00D-01 FncErr=1.00D-07 GrdErr=1.00D-06
 Number of steps in this run=     25 maximum allowed number of steps=    594.
 GradGradGradGradGradGradGradGradGradGradGradGradGradGradGradGradGradGrad

 Leave Link  103 at Tue Dec  9 10:52:53 2014, MaxMem=  3758096384 cpu:         0.6
 (Enter /global/apps/gaussian/09.d01/l202.exe)
 Symmetry turned off by external request.
 Stoichiometry    C42H52Cl2N2Ru
 Framework group  C1[X(C42H52Cl2N2Ru)]
 Deg. of freedom   291
 Full point group                 C1      NOp   1
                          Input orientation:                          
 ---------------------------------------------------------------------
 Center     Atomic      Atomic             Coordinates (Angstroms)
 Number     Number       Type             X           Y           Z
 ---------------------------------------------------------------------
      1         44           0        0.208639   -0.304777   -0.896776
      2          6           0       -1.391752   -1.164867   -0.926597
      3         17           0        1.035641   -1.309715    1.133654
      4         17           0        0.502777    0.132662   -3.271867
      5          1           0       -2.388080   -0.781949   -0.684962
      6          1           0       -1.337909   -2.228752   -1.241871
      7          6           0       -0.192050    1.568312   -0.456440
      8          7           0        0.843579    2.444663   -0.126853
      9          7           0       -1.358897    2.285288   -0.605105
     10          6           0        1.947577    2.079422    0.766723
     11          6           0        0.433521    3.910761   -0.479629
     12          6           0        3.337516    1.973615    0.430324
     13          6           0        1.559197    1.873228    2.115974
     14          6           0        4.230495    1.657308    1.502180
     15          6           0        3.841675    1.443092    2.838856
     16          1           0        5.282949    1.533977    1.253933
     17          6           0        2.468458    1.564106    3.134757
     18          1           0        2.096163    1.404322    4.146634
     19          6           0       -1.168274    3.800140   -0.304909
     20          6           0       -2.585150    1.739298   -1.163274
     21          6           0       -3.705879    1.313326   -0.374689
     22          6           0       -2.668522    1.665699   -2.572548
     23          6           0       -4.857438    0.858525   -1.079739
     24          6           0       -4.949290    0.794476   -2.487230
     25          1           0       -5.702008    0.501501   -0.489837
     26          6           0       -3.816755    1.202190   -3.228469
     27          1           0       -3.813566    1.150047   -4.317035
     28          6           0       -6.220080    0.259606   -3.161999
     29          6           0       -5.958836   -1.094924   -3.879956
     30          6           0       -6.850326    1.296898   -4.132000
     31          1           0       -6.960515    0.069946   -2.366889
     32          1           0       -6.891073   -1.484636   -4.317200
     33          1           0       -5.568840   -1.846751   -3.177916
     34          1           0       -5.225846   -0.984179   -4.693082
     35          1           0       -7.080459    2.238655   -3.611084
     36          1           0       -7.787959    0.904156   -4.554500
     37          1           0       -6.178422    1.530496   -4.970869
     38          6           0        0.924915    4.120757   -1.961811
     39          6           0        0.864767    5.518249   -2.635550
     40          1           0        1.971022    3.811705   -1.957497
     41          1           0        0.414506    3.386441   -2.602318
     42          1           0        1.104963    6.340107   -1.947236
     43          1           0       -0.108722    5.740696   -3.089228
     44          1           0        1.612090    5.548109   -3.444059
     45          6           0        1.011540    4.990076    0.487316
     46          6           0        2.501526    5.399541    0.451349
     47          1           0        0.425337    5.897724    0.282568
     48          1           0        0.778846    4.699864    1.517424
     49          1           0        3.149923    4.634839    0.884779
     50          1           0        2.622598    6.312335    1.056563
     51          1           0        2.871591    5.617309   -0.556642
     52          6           0       -1.920120    4.710933   -1.328614
     53          6           0       -3.454140    4.904473   -1.224692
     54          1           0       -1.463913    5.707195   -1.231536
     55          1           0       -1.686986    4.371033   -2.343502
     56          1           0       -4.010629    3.967616   -1.292592
     57          1           0       -3.779553    5.538692   -2.065109
     58          1           0       -3.758392    5.410057   -0.299408
     59          6           0       -1.708540    4.022045    1.156326
     60          6           0       -1.854849    5.451233    1.751952
     61          1           0       -2.706697    3.578571    1.154688
     62          1           0       -1.124552    3.405428    1.850465
     63          1           0       -2.177357    6.200269    1.016825
     64          1           0       -0.933646    5.820685    2.215958
     65          1           0       -2.622769    5.422321    2.540964
     66          6           0        3.975223    2.199770   -0.917721
     67          6           0        5.177706    2.955536   -1.040096
     68          6           0        3.453139    1.614781   -2.100431
     69          6           0        5.813409    3.129372   -2.284654
     70          1           0        5.605515    3.433569   -0.160718
     71          6           0        5.270940    2.547178   -3.449833
     72          1           0        6.728183    3.722046   -2.344103
     73          6           0        4.088460    1.789140   -3.346892
     74          1           0        5.762313    2.679646   -4.415447
     75          1           0        3.651924    1.324496   -4.231792
     76          1           0        2.552932    1.000308   -2.064767
     77          1           0        0.502051    1.956532    2.362564
     78          6           0        4.880292    1.072214    3.904509
     79          6           0        4.642248   -0.358690    4.463768
     80          6           0        4.954584    2.121786    5.047840
     81          1           0        5.866358    1.064409    3.409997
     82          1           0        3.674828   -0.434262    4.981092
     83          1           0        5.431510   -0.624280    5.184312
     84          1           0        4.648422   -1.104978    3.656090
     85          1           0        4.015251    2.167968    5.618941
     86          1           0        5.158847    3.128222    4.651911
     87          1           0        5.760261    1.862280    5.752072
     88          6           0       -3.787905    1.273506    1.127578
     89          6           0       -4.947908    1.778790    1.775686
     90          6           0       -2.790000    0.667173    1.936269
     91          6           0       -5.094360    1.709240    3.175553
     92          1           0       -5.738108    2.241607    1.183140
     93          6           0       -4.089252    1.113385    3.965281
     94          1           0       -5.992287    2.115439    3.645254
     95          6           0       -2.939880    0.590923    3.335124
     96          1           0       -4.201748    1.053593    5.049161
     97          1           0       -2.157056    0.114279    3.927195
     98          1           0       -1.899468    0.242879    1.485507
     99          1           0       -1.796143    1.943277   -3.157285
 ---------------------------------------------------------------------
 Rotational constants (GHZ):      0.0802827      0.0450700      0.0411459
 Leave Link  202 at Tue Dec  9 10:52:53 2014, MaxMem=  3758096384 cpu:         0.2
 (Enter /global/apps/gaussian/09.d01/l301.exe)
 Standard basis: LANL2DZ (5D, 7F)
 Ernie: Thresh=  0.10000D-02 Tol=  0.10000D-05 Strict=F.
 Ernie:  1 primitive shells out of 898 were deleted.
   538 basis functions,  1381 primitive gaussians,   540 cartesian basis functions
   174 alpha electrons      174 beta electrons
       nuclear repulsion energy      6473.4541455391 Hartrees.
 IExCor= 2002 DFT=T Ex=O Corr=LYP ExCW=0 ScaHFX=  0.000000
 ScaDFX=  1.000000  1.000000  1.000000  1.000000 ScalE2=  1.000000  1.000000
 IRadAn=      0 IRanWt=     -1 IRanGd=            0 ICorTp=0 IEmpDi=  4
 NAtoms=   99 NActive=   99 NUniq=   99 SFac= 1.00D+00 NAtFMM=   60 NAOKFM=T Big=T
 Integral buffers will be    131072 words long.
 Raffenetti 2 integral format.
 Two-electron integral symmetry is turned off.
 Leave Link  301 at Tue Dec  9 10:52:53 2014, MaxMem=  3758096384 cpu:         1.0
 (Enter /global/apps/gaussian/09.d01/linda-exe/../l302.exel)
 NPDir=0 NMtPBC=     1 NCelOv=     1 NCel=       1 NClECP=     1 NCelD=      1
         NCelK=      1 NCelE2=     1 NClLst=     1 CellRange=     0.0.
 One-electron integrals computed using PRISM.
   1 Symmetry operations used in ECPInt.
 ECPInt:  NShTT=   57970 NPrTT=  404158 LenC2=   48789 LenP2D=  175362.
 LDataN:  DoStor=T MaxTD1= 5 Len=  102
 NBasis=   538 RedAO= T EigKep=  3.24D-04  NBF=   538
 NBsUse=   538 1.00D-06 EigRej= -1.00D+00 NBFU=   538
 Precomputing XC quadrature grid using
 IXCGrd= 4 IRadAn=           0 IRanWt=          -1 IRanGd=           0 AccXCQ= 0.00D+00.
 Defaulting to unpruned grid for atomic number  44.
 Generated NRdTot=       0 NPtTot=           0 NUsed=           0 NTot=          32
 NSgBfM=   499   502   503   505   506 MxSgAt=    99 MxSgA2=    99.
 Leave Link  302 at Tue Dec  9 10:52:57 2014, MaxMem=  3758096384 cpu:        53.6
 (Enter /global/apps/gaussian/09.d01/l303.exe)
 DipDrv:  MaxL=1.
 Leave Link  303 at Tue Dec  9 10:52:57 2014, MaxMem=  3758096384 cpu:         3.0
 (Enter /global/apps/gaussian/09.d01/linda-exe/../l401.exel)
 Initial guess from the checkpoint file:  "Mol_000130_2D_DFT.chk"
 SCF N**3 symmetry information disabled.
 B after Tr=     0.000000    0.000000    0.000000
         Rot=    1.000000    0.000000    0.000000    0.000000 Ang=   0.00 deg.
 Guess basis will be translated and rotated to current coordinates.
 JPrj=2 DoOrth=T DoCkMO=T.
 Leave Link  401 at Tue Dec  9 10:53:00 2014, MaxMem=  3758096384 cpu:        28.5
 (Enter /global/apps/gaussian/09.d01/linda-exe/../l502.exel)
 Closed shell SCF:
 Using DIIS extrapolation, IDIIS=  1040.
 Two-electron integral symmetry not used.
 IVT=     1853704 IEndB=     1853704 NGot=  3758096384 MDV=  3757497181
 LenX=  3757497181 LenY=  3757205041
 Requested convergence on RMS density matrix=1.00D-08 within 980 cycles.
 Requested convergence on MAX density matrix=1.00D-06.
 Requested convergence on             energy=1.00D-06.
 Virtual orbitals will be shifted by   0.200 hartree.
 No special actions if energy rises.
 Fock matrices will be formed incrementally for  20 cycles.

 Cycle   1  Pass 1  IDiag  1:
 FoFJK:  IHMeth= 1 ICntrl=     500 DoSepK=F KAlg= 0 I1Cent=   0 FoldK=F
 IRaf= 990000000 NMat=   1 IRICut=       1 DoRegI=T DoRafI=F ISym2E= 0.
 FoFCou: FMM=T IPFlag=           0 FMFlag=      100000 FMFlg1=        2001
         NFxFlg=           0 DoJE=T BraDBF=F KetDBF=F FulRan=T
         wScrn=  0.000000 ICntrl=     500 IOpCl=  0 I1Cent=           0 NGrid=           0
         NMat0=    1 NMatS0=      1 NMatT0=    0 NMatD0=    1 NMtDS0=    0 NMtDT0=    0
 Symmetry not used in FoFCou.
 FMM levels:  10  Number of levels for PrismC:   9
 Defaulting to unpruned grid for atomic number  44.
 Defaulting to unpruned grid for atomic number  44.
 Defaulting to unpruned grid for atomic number  44.
 Defaulting to unpruned grid for atomic number  44.
 Defaulting to unpruned grid for atomic number  44.
 Defaulting to unpruned grid for atomic number  44.
 Defaulting to unpruned grid for atomic number  44.
 Defaulting to unpruned grid for atomic number  44.
 Defaulting to unpruned grid for atomic number  44.
 Defaulting to unpruned grid for atomic number  44.
 Defaulting to unpruned grid for atomic number  44.
 Defaulting to unpruned grid for atomic number  44.
 Defaulting to unpruned grid for atomic number  44.
 Defaulting to unpruned grid for atomic number  44.
 Defaulting to unpruned grid for atomic number  44.
 Defaulting to unpruned grid for atomic number  44.
 E= -1864.22775474942    
 DIIS: error= 6.08D-08 at cycle   1 NSaved=   1.
 NSaved= 1 IEnMin= 1 EnMin= -1864.22775474942     IErMin= 1 ErrMin= 6.08D-08
[...]
     91          6           0       -5.035072    1.685840    3.185678
     92          1           0       -5.664938    2.325027    1.217281
     93          6           0       -4.050461    1.014876    3.943289
     94          1           0       -5.905719    2.121025    3.680167
     95          6           0       -2.931655    0.463002    3.283214
     96          1           0       -4.156031    0.920367    5.025520
     97          1           0       -2.167350   -0.071864    3.849801
     98          1           0       -1.923812    0.133433    1.409559
     99          1           0       -1.813009    1.964109   -3.178582
 ---------------------------------------------------------------------
 Rotational constants (GHZ):      0.0805798      0.0450078      0.0410959
 Leave Link  202 at Tue Dec  9 13:14:29 2014, MaxMem=  3758096384 cpu:         0.2
 (Enter /global/apps/gaussian/09.d01/l601.exe)
 Copying SCF densities to generalized density rwf, IOpCl= 0 IROHF=0.

 **********************************************************************

            Population analysis using the SCF density.

 **********************************************************************

 Alpha  occ. eigenvalues --  -14.05563 -14.04736 -10.00511  -9.98675  -9.98332
 Alpha  occ. eigenvalues --   -9.97071  -9.96484  -9.94608  -9.93997  -9.93746
 Alpha  occ. eigenvalues --   -9.93701  -9.93615  -9.93324  -9.92882  -9.92766
 Alpha  occ. eigenvalues --   -9.92665  -9.92626  -9.92593  -9.92515  -9.92440
 Alpha  occ. eigenvalues --   -9.92423  -9.92382  -9.92367  -9.92063  -9.91888
 Alpha  occ. eigenvalues --   -9.91853  -9.91744  -9.91740  -9.91641  -9.91552
 Alpha  occ. eigenvalues --   -9.91472  -9.91379  -9.91371  -9.91260  -9.90976
 Alpha  occ. eigenvalues --   -9.90615  -9.90565  -9.90544  -9.90366  -9.90238
 Alpha  occ. eigenvalues --   -9.89913  -9.89912  -9.89766  -9.89381  -2.75854
 Alpha  occ. eigenvalues --   -1.68929  -1.68243  -1.66055  -0.92053  -0.84244
 Alpha  occ. eigenvalues --   -0.79718  -0.78489  -0.77821  -0.76893  -0.75435
 Alpha  occ. eigenvalues --   -0.73454  -0.72534  -0.71167  -0.70774  -0.69894
 Alpha  occ. eigenvalues --   -0.68662  -0.68201  -0.67890  -0.67270  -0.66929
 Alpha  occ. eigenvalues --   -0.66376  -0.65662  -0.65315  -0.64888  -0.64667
 Alpha  occ. eigenvalues --   -0.64562  -0.62025  -0.61205  -0.60157  -0.59737
 Alpha  occ. eigenvalues --   -0.59414  -0.57356  -0.56848  -0.56624  -0.56009
 Alpha  occ. eigenvalues --   -0.55421  -0.54571  -0.53996  -0.53722  -0.53456
 Alpha  occ. eigenvalues --   -0.53022  -0.51965  -0.50296  -0.49731  -0.49382
 Alpha  occ. eigenvalues --   -0.46759  -0.46037  -0.45570  -0.44846  -0.43825
 Alpha  occ. eigenvalues --   -0.43148  -0.42806  -0.42089  -0.41987  -0.41188
 Alpha  occ. eigenvalues --   -0.41092  -0.40388  -0.40107  -0.39957  -0.39841
 Alpha  occ. eigenvalues --   -0.39054  -0.38915  -0.38655  -0.38406  -0.38202
 Alpha  occ. eigenvalues --   -0.37837  -0.37544  -0.37400  -0.37087  -0.36816
 Alpha  occ. eigenvalues --   -0.36722  -0.36650  -0.36402  -0.36301  -0.35940
 Alpha  occ. eigenvalues --   -0.35864  -0.35174  -0.35044  -0.34722  -0.34615
 Alpha  occ. eigenvalues --   -0.34080  -0.33359  -0.33298  -0.33027  -0.32727
 Alpha  occ. eigenvalues --   -0.32574  -0.32360  -0.32224  -0.31986  -0.31807
 Alpha  occ. eigenvalues --   -0.31621  -0.31544  -0.31155  -0.31136  -0.30821
 Alpha  occ. eigenvalues --   -0.30480  -0.30396  -0.30081  -0.29787  -0.29578
 Alpha  occ. eigenvalues --   -0.29437  -0.29238  -0.29120  -0.28899  -0.28737
 Alpha  occ. eigenvalues --   -0.28698  -0.28435  -0.28076  -0.27993  -0.27617
 Alpha  occ. eigenvalues --   -0.27358  -0.27161  -0.26811  -0.25562  -0.24106
 Alpha  occ. eigenvalues --   -0.23119  -0.22817  -0.22463  -0.22349  -0.22125
 Alpha  occ. eigenvalues --   -0.21925  -0.21217  -0.20926  -0.20795  -0.20131
 Alpha  occ. eigenvalues --   -0.19196  -0.18933  -0.17460  -0.16082
 Alpha virt. eigenvalues --   -0.09098  -0.08243  -0.05863  -0.05156  -0.04447
 Alpha virt. eigenvalues --   -0.03875  -0.03312  -0.02989  -0.02601  -0.02057
 Alpha virt. eigenvalues --   -0.01734  -0.01089   0.01173   0.03270   0.03883
 Alpha virt. eigenvalues --    0.05893   0.07093   0.07731   0.08118   0.08456
 Alpha virt. eigenvalues --    0.08630   0.09167   0.09444   0.09811   0.10287
 Alpha virt. eigenvalues --    0.10319   0.10469   0.10795   0.10907   0.11166
 Alpha virt. eigenvalues --    0.11274   0.11550   0.11776   0.11925   0.11977
 Alpha virt. eigenvalues --    0.12245   0.12382   0.12609   0.12821   0.13094
 Alpha virt. eigenvalues --    0.13272   0.13392   0.13709   0.13997   0.14079
 Alpha virt. eigenvalues --    0.14218   0.14540   0.14836   0.14890   0.15182
 Alpha virt. eigenvalues --    0.15427   0.15534   0.15570   0.16001   0.16183
 Alpha virt. eigenvalues --    0.16360   0.16734   0.16872   0.17082   0.17315
 Alpha virt. eigenvalues --    0.17377   0.17561   0.17811   0.17927   0.18244
 Alpha virt. eigenvalues --    0.18480   0.18573   0.18746   0.19151   0.19326
 Alpha virt. eigenvalues --    0.19463   0.19754   0.20090   0.20142   0.20264
 Alpha virt. eigenvalues --    0.20606   0.20760   0.21035   0.21271   0.21736
 Alpha virt. eigenvalues --    0.21995   0.22167   0.22228   0.22384   0.22487
 Alpha virt. eigenvalues --    0.22854   0.23058   0.23208   0.23347   0.23583
 Alpha virt. eigenvalues --    0.23847   0.24017   0.24253   0.24449   0.25122
 Alpha virt. eigenvalues --    0.25470   0.25622   0.25868   0.26060   0.26203
 Alpha virt. eigenvalues --    0.26347   0.26763   0.27165   0.27803   0.28080
 Alpha virt. eigenvalues --    0.28158   0.28591   0.28707   0.29039   0.29163
 Alpha virt. eigenvalues --    0.29485   0.29542   0.29833   0.29961   0.30238
 Alpha virt. eigenvalues --    0.30316   0.30442   0.31227   0.31346   0.31602
 Alpha virt. eigenvalues --    0.32183   0.32318   0.32456   0.32625   0.32721
 Alpha virt. eigenvalues --    0.33217   0.33506   0.33870   0.34084   0.34489
 Alpha virt. eigenvalues --    0.34767   0.35026   0.35563   0.35723   0.35820
 Alpha virt. eigenvalues --    0.36050   0.36288   0.36578   0.36776   0.37321
 Alpha virt. eigenvalues --    0.37366   0.37762   0.37839   0.37978   0.38255
 Alpha virt. eigenvalues --    0.38463   0.38657   0.38942   0.39148   0.39400
 Alpha virt. eigenvalues --    0.39598   0.40021   0.40207   0.40421   0.40521
 Alpha virt. eigenvalues --    0.40801   0.41081   0.41484   0.41850   0.42067
 Alpha virt. eigenvalues --    0.42330   0.42477   0.42819   0.43151   0.43192
 Alpha virt. eigenvalues --    0.43695   0.43827   0.43928   0.44269   0.44527
 Alpha virt. eigenvalues --    0.44766   0.44977   0.45414   0.45547   0.45858
 Alpha virt. eigenvalues --    0.46088   0.46323   0.46647   0.47010   0.47303
 Alpha virt. eigenvalues --    0.47423   0.47882   0.48282   0.48475   0.49009
 Alpha virt. eigenvalues --    0.49434   0.49835   0.49973   0.50345   0.50813
 Alpha virt. eigenvalues --    0.51228   0.51623   0.51819   0.52552   0.53037
 Alpha virt. eigenvalues --    0.53336   0.54326   0.54599   0.54862   0.55184
 Alpha virt. eigenvalues --    0.55675   0.55845   0.56553   0.57019   0.57582
 Alpha virt. eigenvalues --    0.58112   0.58224   0.58765   0.59429   0.60101
 Alpha virt. eigenvalues --    0.60573   0.61152   0.61807   0.62502   0.62803
 Alpha virt. eigenvalues --    0.63180   0.63403   0.64226   0.64388   0.64499
 Alpha virt. eigenvalues --    0.64883   0.65039   0.65266   0.65808   0.66224
 Alpha virt. eigenvalues --    0.66483   0.67538   0.67744   0.68083   0.68272
 Alpha virt. eigenvalues --    0.68809   0.69259   0.70358   0.70915   0.71182
 Alpha virt. eigenvalues --    0.71907   0.72220   0.73003   0.73911   0.74711
 Alpha virt. eigenvalues --    0.74778   0.76666   0.77029   0.77786   0.78684
 Alpha virt. eigenvalues --    0.80139   0.80681   0.80938   0.81600   0.82491
 Alpha virt. eigenvalues --    0.83358   0.83751   0.85338   0.85986   0.86737
 Alpha virt. eigenvalues --    0.87501   0.88491   0.90182   0.91543   0.92199
 Alpha virt. eigenvalues --    0.93180   0.94596   0.94931   0.98306   0.98870
 Alpha virt. eigenvalues --    0.99863   1.01397   1.01678   1.02526   1.02813
 Alpha virt. eigenvalues --    1.02915   1.03821   1.04401   1.04635   1.04767
 Alpha virt. eigenvalues --    1.04969   1.05661   1.06007   1.06498   1.06688
 Alpha virt. eigenvalues --    1.07084   1.07970   1.08259   1.08670   1.09375
 Alpha virt. eigenvalues --    1.09619   1.09819   1.10636   1.10920   1.11086
 Alpha virt. eigenvalues --    1.11308   1.11641   1.12025   1.12148   1.12604
 Alpha virt. eigenvalues --    1.12658   1.12847   1.13012   1.13438   1.13486
 Alpha virt. eigenvalues --    1.13784   1.14318   1.15092   1.15247   1.15795
 Alpha virt. eigenvalues --    1.17192   1.18349   1.18545   1.19172   1.19667
 Alpha virt. eigenvalues --    1.19889   1.21404   1.21776   1.22608   1.23414
 Alpha virt. eigenvalues --    1.24339   1.24770   1.25663   1.25912   1.26850
 Alpha virt. eigenvalues --    1.27790   1.28205   1.29685   1.31286   1.31496
 Alpha virt. eigenvalues --    1.31626   1.32567   1.33109   1.33981   1.34971
 Alpha virt. eigenvalues --    1.35856   1.37024   1.37835   1.38319   1.40448
 Alpha virt. eigenvalues --    1.42062   1.42629   1.44398   1.46779   1.48058
 Alpha virt. eigenvalues --    1.48592   1.51087   1.52436   1.53698   1.53919
 Alpha virt. eigenvalues --    1.57500   1.58172   1.60012   1.61833   1.62585
 Alpha virt. eigenvalues --    1.62878   1.64918   1.66727   1.68046   1.71712
 Alpha virt. eigenvalues --    1.72512   1.73137   1.74392   1.88123   1.93954
 Alpha virt. eigenvalues --    1.94806   9.14925  10.54423  11.42143
          Condensed to atoms (all electrons):
 Mulliken charges:
               1
     1  Ru   0.304522
     2  C   -0.528185
     3  Cl  -0.263263
     4  Cl  -0.276822
     5  H    0.249284
     6  H    0.207654
     7  C    0.065219
     8  N   -0.444055
     9  N   -0.418061
    10  C    0.346653
    11  C    0.247964
    12  C    0.238266
    13  C   -0.282140
    14  C   -0.616500
    15  C    0.573714
    16  H    0.254741
    17  C   -0.451837
    18  H    0.230530
    19  C    0.270579
    20  C    0.340608
    21  C    0.219478
    22  C   -0.332798
    23  C   -0.632637
    24  C    0.562132
    25  H    0.260949
    26  C   -0.450735
    27  H    0.240252
    28  C   -0.242640
    29  C   -0.685976
    30  C   -0.693339
    31  H    0.209308
    32  H    0.211157
    33  H    0.223677
    34  H    0.214159
    35  H    0.219184
    36  H    0.212910
    37  H    0.212626
    38  C   -0.401307
    39  C   -0.746086
    40  H    0.259894
    41  H    0.229914
    42  H    0.225088
    43  H    0.233003
    44  H    0.220656
    45  C   -0.421594
    46  C   -0.734766
    47  H    0.210860
    48  H    0.230318
    49  H    0.246625
    50  H    0.200599
    51  H    0.231867
    52  C   -0.412578
    53  C   -0.751826
    54  H    0.211381
    55  H    0.229108
    56  H    0.258114
    57  H    0.207459
    58  H    0.226594
    59  C   -0.394709
    60  C   -0.742439
    61  H    0.253304
    62  H    0.210222
    63  H    0.225127
    64  H    0.234826
    65  H    0.216190
    66  C    0.235919
    67  C   -0.364326
    68  C   -0.316811
    69  C   -0.267371
    70  H    0.225207
    71  C   -0.257094
    72  H    0.228925
    73  C   -0.261703
    74  H    0.233446
    75  H    0.244573
    76  H    0.239981
    77  H    0.218599
    78  C   -0.243610
    79  C   -0.683280
    80  C   -0.696629
    81  H    0.208967
    82  H    0.210197
    83  H    0.205676
    84  H    0.234404
    85  H    0.209614
    86  H    0.218072
    87  H    0.211629
    88  C    0.287890
    89  C   -0.407086
    90  C   -0.373195
    91  C   -0.251967
    92  H    0.240959
    93  C   -0.255420
    94  H    0.230836
    95  C   -0.284875
    96  H    0.236078
    97  H    0.245512
    98  H    0.284123
    99  H    0.260339
 Sum of Mulliken charges =   0.00000
 Mulliken charges with hydrogens summed into heavy atoms:
               1
     1  Ru   0.304522
     2  C   -0.071246
     3  Cl  -0.263263
     4  Cl  -0.276822
     7  C    0.065219
     8  N   -0.444055
     9  N   -0.418061
    10  C    0.346653
    11  C    0.247964
    12  C    0.238266
    13  C   -0.063541
    14  C   -0.361760
    15  C    0.573714
    17  C   -0.221307
    19  C    0.270579
    20  C    0.340608
    21  C    0.219478
    22  C   -0.072458
    23  C   -0.371688
    24  C    0.562132
    26  C   -0.210483
    28  C   -0.033332
    29  C   -0.036983
    30  C   -0.048620
    38  C    0.088501
    39  C   -0.067339
    45  C    0.019584
    46  C   -0.055674
    52  C    0.027911
    53  C   -0.059659
    59  C    0.068817
    60  C   -0.066295
    66  C    0.235919
    67  C   -0.139119
    68  C   -0.076830
    69  C   -0.038445
    71  C   -0.023649
    73  C   -0.017131
    78  C   -0.034643
    79  C   -0.033004
    80  C   -0.057315
    88  C    0.287890
    89  C   -0.166126
    90  C   -0.089072
    91  C   -0.021131
    93  C   -0.019342
    95  C   -0.039362
 Electronic spatial extent (au):  <R**2>=          33739.8453
 Charge=              0.0000 electrons
 Dipole moment (field-independent basis, Debye):
    X=             -3.6882    Y=              6.1788    Z=              1.6792  Tot=              7.3892
 Quadrupole moment (field-independent basis, Debye-Ang):
   XX=           -276.4177   YY=           -291.3820   ZZ=           -300.3302
   XY=              3.0064   XZ=              9.0845   YZ=              2.9677
 Traceless Quadrupole moment (field-independent basis, Debye-Ang):
   XX=             12.9589   YY=             -2.0054   ZZ=            -10.9536
   XY=              3.0064   XZ=              9.0845   YZ=              2.9677
 Octapole moment (field-independent basis, Debye-Ang**2):
  XXX=             98.6489  YYY=          -1586.0848  ZZZ=            237.4123  XYY=             59.5656
  XXY=           -491.4000  XXZ=             33.6940  XZZ=             38.8932  YZZ=           -535.3411
  YYZ=             36.2146  XYZ=            -14.0044
 Hexadecapole moment (field-independent basis, Debye-Ang**3):
 XXXX=         -21587.6947 YYYY=         -12600.2983 ZZZZ=         -10864.9564 XXXY=           -330.5025
 XXXZ=          -1659.0243 YYYX=           -440.2305 YYYZ=            266.0874 ZZZX=          -1904.6090
 ZZZY=            269.3953 XXYY=          -5826.3183 XXZZ=          -5111.8627 YYZZ=          -4084.6419
 XXYZ=            131.1514 YYXZ=           -683.7164 ZZXY=           -166.4886
 N-N= 6.470080394942D+03 E-N=-1.723118841697D+04  KE= 1.774470289333D+03
 No NMR shielding tensors so no spin-rotation constants.
 Leave Link  601 at Tue Dec  9 13:14:30 2014, MaxMem=  3758096384 cpu:         7.6
 (Enter /global/apps/gaussian/09.d01/l9999.exe)
 1\1\GINC-C9-15\FOpt\ROLYP\LANL2DZ\C42H52Cl2N2Ru1\MARCOF\09-Dec-2014\0\
 \#P # OLYP/LANL2DZ 5D 7F # GEOM=CHECK # GUESS=READ # NOSYM # INT(GRID=
 ULTRAFINE) # SCF=(VSHIFT=200,NOSYM,NOVARACC,MAXCYCLE=980) # OPT=(TIGHT
 ,CALCFC,MAXCYCLES=320)\\STEP 5 (SECOND OPT: DZ) - PROTOCOL DENOPTIM_1.
 1, 19 NOV 2014\\0,1\Ru,0.2036174829,-0.2897728355,-0.9472258952\C,-1.3
 776418878,-1.1746022589,-1.0615094924\Cl,0.9674259134,-1.2850940281,1.
 1177006961\Cl,0.5372114262,0.1812617701,-3.3087758982\H,-2.3870658372,
 -0.8265569957,-0.8304315509\H,-1.2886664179,-2.2268276632,-1.407931816
 3\C,-0.200247394,1.5677901814,-0.4765084266\N,0.8324669284,2.448893904
 1,-0.1338949458\N,-1.3679225497,2.290668767,-0.6232036083\C,1.92028214
 94,2.0956051397,0.7822860447\C,0.4252182896,3.9082340319,-0.4742374211
 \C,3.3075704878,1.9874892106,0.4453141474\C,1.5393256707,1.9055096459,
 2.1358840882\C,4.2172214869,1.6988527171,1.5023750051\C,3.8394285081,1
 .5092283589,2.8479284703\H,5.2700792964,1.5943176452,1.237877774\C,2.4
 626311345,1.6203195581,3.1501246198\H,2.0996741017,1.4679584665,4.1667
 961513\C,-1.1800818242,3.7992514321,-0.2965140183\C,-2.5973570037,1.75
 08339389,-1.1820420132\C,-3.712229788,1.3204871955,-0.393313046\C,-2.6
 836610032,1.6808836903,-2.5935233236\C,-4.8720939876,0.8786215963,-1.0
 931750597\C,-4.9714563334,0.821070734,-2.5004520641\H,-5.7167447085,0.
 5291087884,-0.4987202889\C,-3.8379757513,1.2241225237,-3.2471244493\H,
 -3.8414568089,1.1770173534,-4.3361193124\C,-6.2544175167,0.3124367197,
 -3.170836223\C,-6.0127639278,-1.0019885574,-3.9653692745\C,-6.91529676
 01,1.3985365705,-4.0652151418\H,-6.9720469163,0.0757855638,-2.36700935
 3\H,-6.9613650813,-1.3811059322,-4.376189899\H,-5.585082426,-1.7831376
 473,-3.3191050145\H,-5.3213040961,-0.8464606441,-4.8068067582\H,-7.124
 2122498,2.3137454175,-3.4907670143\H,-7.867887797,1.0287158963,-4.4751
 802138\H,-6.2706335014,1.6726208187,-4.9136123093\C,0.9271587764,4.110
 1859673,-1.9579060382\C,0.9000909622,5.5043425214,-2.6394626825\H,1.97
 04515871,3.7778071173,-1.9459826299\H,0.4110705971,3.3856804512,-2.602
 0458171\H,1.2820170534,6.3074063953,-1.9959784153\H,-0.094579527,5.803
 3789867,-2.989202661\H,1.5530564732,5.4644579388,-3.5259913731\C,1.008
 482748,4.9824090707,0.4933151923\C,2.5022389244,5.3822683536,0.4402316
 716\H,0.4206015145,5.8909805354,0.3023288001\H,0.7876061133,4.68607103
 68,1.5240629905\H,3.1445870666,4.6296842238,0.9038545477\H,2.629980358
 1,6.3163111882,1.0112644594\H,2.8710236273,5.5652093416,-0.5744014003\
 C,-1.9359946453,4.7275364761,-1.3023742759\C,-3.4721733867,4.908011454
 2,-1.202090856\H,-1.486331692,5.7234320262,-1.1865311252\H,-1.70313187
 9,4.4058151083,-2.3232590443\H,-4.0246948279,3.9935896634,-1.434372224
 1\H,-3.776787013,5.6689916396,-1.9390861646\H,-3.8019128441,5.26207181
 27,-0.2181763043\C,-1.7223500987,4.0010798658,1.1687113065\C,-1.864317
 387,5.4174810888,1.7937918913\H,-2.7231499927,3.5620996733,1.160510806
 6\H,-1.1389972467,3.3716896092,1.8517808479\H,-2.2333813345,6.16982911
 66,1.085567921\H,-0.9310870554,5.7985749988,2.2229488882\H,-2.59572346
 92,5.361002528,2.6158416393\C,3.94460437,2.1511641238,-0.9097615243\C,
 4.9597656961,3.1302852325,-1.0962200053\C,3.6729836281,1.2704725625,-1
 .9837950179\C,5.6521186656,3.2420704818,-2.3186073688\H,5.2065693,3.81
 09935378,-0.2809735822\C,5.3532583523,2.36732347,-3.3862949871\H,6.422
 7202305,4.006813786,-2.4346929031\C,4.3616848262,1.3798808156,-3.20967
 30989\H,5.8879431587,2.4498290642,-4.3343326804\H,4.1187901619,0.68958
 65566,-4.0184305931\H,2.9347039061,0.4831429697,-1.8734672826\H,0.4833
 036574,1.9651015829,2.3878811347\C,4.8887079106,1.164905746,3.91207461
 1\C,4.6789081233,-0.2678363427,4.479214111\C,4.9448520611,2.2213695073
 ,5.0503287947\H,5.8734094409,1.1735219082,3.414725394\H,3.7250422412,-
 0.35242244,5.0209744374\H,5.4888984969,-0.5256655736,5.1794509955\H,4.
 6706929252,-1.0147622009,3.6719796113\H,4.0031936285,2.2569552698,5.61
 85772934\H,5.135285469,3.2286205719,4.6493605362\H,5.7523922872,1.9783
 479197,5.7584386026\C,-3.7740570816,1.2508028158,1.108665736\C,-4.8993
 633003,1.7959771443,1.7870255662\C,-2.7913548269,0.5810857625,1.884982
 0292\C,-5.0350720517,1.6858399662,3.1856781899\H,-5.6649377145,2.32502
 74573,1.2172805367\C,-4.05046129,1.0148763185,3.9432891282\H,-5.905719
 4135,2.1210254397,3.6801667256\C,-2.9316548522,0.4630021721,3.28321424
 04\H,-4.1560314281,0.9203669089,5.0255197538\H,-2.1673497779,-0.071863
 9066,3.8498011976\H,-1.9238120977,0.1334327089,1.4095592166\H,-1.81300
 94129,1.964109401,-3.1785819137\\Version=EM64L-G09RevD.01\HF=-1864.230
 0124\RMSD=9.502e-09\RMSF=2.604e-07\Dipole=-1.4510487,2.4309376,0.66065
 28\Quadrupole=9.6346489,-1.4909462,-8.1437027,2.2351631,6.7541198,2.20
 64025\PG=C01 [X(C42H52Cl2N2Ru1)]\\@


 The arm of the moral universe is long, but it bends toward justice.
 -- Martin Luther King, Jr.
 Job cpu time:       0 days  0 hours  5 minutes 28.3 seconds.
 File lengths (MBytes):  RWF=   3821 Int=      0 D2E=      0 Chk=     30 Scr=      1
 Normal termination of Gaussian 09 at Tue Dec  9 13:14:31 2014.
