93
/cluster/projects/nn2506k/marcof/RuC_BondLength/evolutionary_desing/RUN28052021044948/Gen025/M00000164_I_DFT.out	Energy: -1047304.3009956
Ru         0.01263       -0.25341        0.10023
C         -0.28652        0.09621        1.85689
C          1.90237        0.16741       -0.15088
Cl        -0.10068       -2.66497        0.21082
Cl        -0.80395        1.81079       -0.87239
H          0.43880        0.36830        2.62762
H         -1.34503        0.00034        2.18167
N          2.79337        0.85422        0.66134
N          2.55012       -0.09562       -1.36601
C          4.13492        0.97467        0.02293
C          2.64611        1.36706        2.01032
C          3.87650        0.65914       -1.47224
H          4.83542        0.25982        0.48278
H          4.53198        1.98416        0.17670
C          3.79565        1.95715       -2.33863
C          5.05244       -0.09555       -2.15407
C          5.27385        2.35691       -2.57462
H          3.19715        2.74482       -1.86441
H          3.32475        1.71415       -3.29617
C          6.07470        1.01056       -2.54943
H          5.39468        2.89381       -3.52676
H          5.63392        3.03346       -1.78452
H          6.90007        1.06404       -1.82333
H          6.52772        0.78890       -3.52685
H          4.67688       -0.60358       -3.05205
H          5.49969       -0.86177       -1.50935
C          2.94529        0.54262        3.13626
C          2.29323        2.73709        2.21000
C          3.34815       -0.92709        3.01507
C          2.84237        1.08625        4.43501
C          4.83278       -1.21459        3.38556
H          2.70895       -1.52408        3.68738
H          3.14937       -1.29729        2.00434
C          5.19380       -2.71806        3.31269
H          5.49951       -0.64470        2.71607
H          5.03609       -0.84454        4.40408
C          6.66444       -3.01304        3.68325
H          4.99092       -3.09658        2.29605
H          4.52747       -3.28376        3.98753
H          7.36046       -2.49379        3.00466
H          6.88070       -4.09141        3.62255
H          6.89209       -2.68379        4.70995
C          2.47355        2.44189        4.66921
H          3.04729        0.42546        5.27376
N          2.37258        2.96319        5.96623
C          2.21013        3.24682        3.52005
C          1.95002        4.35454        6.17692
C          2.64482        2.11144        7.13128
H          1.91349        4.56726        7.25162
H          0.94495        4.54788        5.76246
H          2.65194        5.07264        5.71768
H          3.67345        1.71079        7.11507
H          1.94739        1.25680        7.19297
H          2.53288        2.69949        8.04954
H          1.92749        4.28956        3.63780
C          2.00134        3.67102        1.04671
H          2.90607        3.86876        0.44992
H          1.63389        4.64010        1.40927
H          1.24516        3.25451        0.37184
C          2.16731       -1.13011       -2.32698
C          2.61670       -2.47142       -2.09230
C          1.45541       -0.83666       -3.53629
C          3.34297       -2.90025       -0.82622
C          2.35372       -3.47786       -3.03800
H          2.61202       -3.26583       -0.09132
H          3.90171       -2.08809       -0.35543
H          4.04566       -3.71850       -1.03980
C          1.64606       -3.21718       -4.24470
H          2.69575       -4.48416       -2.80965
N          1.38885       -4.23043       -5.17879
C          1.21875       -1.87793       -4.45931
C          1.79539       -5.61441       -4.90068
C          0.60604       -3.94353       -6.38791
H          1.31167       -6.01481       -3.99169
H          2.88816       -5.70143       -4.77157
H          1.51001       -6.25606       -5.74255
H          1.09571       -3.18485       -7.02298
H         -0.41046       -3.58279       -6.14857
H          0.50465       -4.85786       -6.98427
H          0.68312       -1.63071       -5.36936
C          0.96904        0.56659       -3.91990
C         -0.47802        0.66330       -4.47701
H          1.03952        1.23344       -3.05621
H          1.65026        0.96802       -4.69304
C         -0.85872        2.10963       -4.87626
H         -0.60096        0.01693       -5.36102
H         -1.18312        0.29851       -3.71487
C         -2.30119        2.23040       -5.41610
H         -0.15119        2.47568       -5.64313
H         -0.74464        2.76812       -4.00056
H         -2.45111        1.60241       -6.30988
H         -2.53650        3.27028       -5.69424
H         -3.03320        1.91397       -4.65638
