69
/cluster/projects/nn2506k/marcof/RuC_BondLength/evolutionary_desing/RUN28052021121055/Gen000/M00000041_I_DFT.out	Energy: -1224487.4718139
Ru        -0.01668        0.06953        0.28646
C          0.02451       -0.57116        1.99196
C          1.89176        0.06174       -0.06014
Cl        -0.95264       -1.90170       -0.76528
Cl        -0.49444        2.39655        0.66342
H          0.88600       -1.04485        2.47284
H         -0.92477       -0.56192        2.56223
N          2.93737        0.59154        0.70418
N          2.48829       -0.39124       -1.24674
C          4.27163        0.39977        0.07351
C          2.90141        1.22155        1.99684
C          3.94275        0.04431       -1.39956
H          4.81820       -0.41331        0.57504
H          4.86291        1.31929        0.15319
C          4.13505        1.25335       -2.37118
C          4.93631       -0.99513       -1.99024
C          5.66311        1.29339       -2.65272
H          3.74289        2.19181       -1.96044
H          3.59736        1.05460       -3.30638
C          6.18883       -0.15383       -2.35876
H          5.85845        1.59689       -3.69072
H          6.16995        2.02801       -2.00969
H          6.90756       -0.14207       -1.52558
H          6.71342       -0.58590       -3.22254
H          4.50846       -1.43757       -2.90002
H          5.16360       -1.81282       -1.29574
C          3.20736        0.50183        3.19615
C          2.73254        2.63537        2.09449
N          3.62793       -0.93080        3.19427
C          3.19574        1.11533        4.45924
O          3.13785       -1.73983        2.32155
O          4.48567       -1.28784        4.08559
C          2.89360        2.48742        4.55877
H          3.42005        0.53900        5.35322
C          2.69300        3.23249        3.37750
C          2.83418        3.09664        5.92828
H          2.51034        4.30159        3.45497
O          2.56661        4.46164        5.87609
O          3.00200        2.46577        6.99547
C          2.46613        5.16834        7.17456
H          1.65316        4.74152        7.77714
H          3.41218        5.08741        7.72673
H          2.25309        6.20843        6.90693
C          2.67731        3.53475        0.87421
H          3.70034        3.82961        0.58161
H          2.12141        4.45305        1.09626
H          2.19140        3.06041        0.02073
C          1.87441       -1.21942       -2.25618
C          2.02056       -2.63637       -2.21322
C          1.21983       -0.65352       -3.38925
C          2.57285       -3.37545       -1.00941
C          1.57070       -3.40371       -3.31450
H          1.75301       -3.93498       -0.53336
H          2.98907       -2.71403       -0.24850
H          3.34184       -4.10396       -1.30562
C          0.98091       -2.81572       -4.45213
H          1.67308       -4.48611       -3.27707
C          0.79504       -1.41839       -4.48325
C          0.50946       -3.61288       -5.63091
H          0.31006       -0.94661       -5.33461
O          0.73908       -4.97705       -5.46098
O         -0.02510       -3.12748       -6.65244
C          0.29122       -5.86408       -6.55931
H         -0.79368       -5.77197       -6.70373
H          0.80704       -5.60532       -7.49398
H          0.55932       -6.87251       -6.22718
N          0.88287        0.78877       -3.44156
O          0.39353        1.33398       -2.38257
O          1.06421        1.41345       -4.55032
