73
/cluster/projects/nn2506k/marcof/RuC_BondLength/evolutionary_desing/RUN28052021121055/Gen002/M00000057_I_DFT.out	Energy: -830719.9785654
Ru        -0.18959       -0.17000       -0.04007
C         -0.37593       -0.64478        1.70336
C          1.74571       -0.07785       -0.28134
Cl        -0.52259       -2.31971       -1.09825
Cl        -0.89355        2.13199        0.15853
H          0.40101       -0.75192        2.46460
H         -1.42149       -0.82685        2.03177
N          2.32396        0.41336       -1.46003
N          2.77958       -0.53590        0.52672
C          3.82070        0.07544       -1.55490
C          1.64875        1.26436       -2.44515
C          4.11627       -0.25728       -0.06713
C          4.69304        1.24239       -2.07099
C          4.07670       -1.16760       -2.45398
H          4.76256       -1.13769        0.03630
H          4.59607        0.58358        0.45907
H          4.63698        2.12315       -1.42482
H          4.40289        1.53678       -3.08757
H          5.74217        0.91255       -2.10405
H          3.85396       -0.95131       -3.50436
H          3.47682       -2.02964       -2.14082
H          5.13962       -1.44653       -2.38653
C          1.63693        2.67868       -2.23058
C          1.07104        0.69729       -3.62272
C          2.22875        3.31292       -0.98057
C          1.01288        3.52265       -3.19223
H          2.58404        2.56661       -0.27102
H          1.47108        3.91291       -0.46119
H          3.07164        3.97916       -1.22465
C          0.97351        5.03098       -2.96775
C          0.39615        2.96393       -4.34774
H          0.05204        5.32883       -2.43761
H          1.00199        5.58681       -3.91299
H          1.81602        5.38250       -2.36246
C         -0.35083        3.87321       -5.31973
C          0.45685        1.56108       -4.57936
H         -1.10849        3.32786       -5.89189
H          0.33188        4.34667       -6.04717
H         -0.87083        4.68178       -4.79100
C         -0.14935        0.97751       -5.85347
H          0.26286       -0.00653       -6.09604
H          0.03321        1.62543       -6.72107
H         -1.24253        0.85421       -5.76177
C          1.05860       -0.80233       -3.87642
H          0.04379       -1.15346       -4.10402
H          1.39244       -1.36819       -3.01018
H          1.69662       -1.07227       -4.73378
C          2.77055       -1.11784        1.85943
C          2.76939       -2.53580        2.00025
C          2.89273       -0.25314        2.98811
C          2.66515       -3.44355        0.78397
C          2.85455       -3.09520        3.30919
H          3.59429       -4.01740        0.63008
H          2.45457       -2.87942       -0.12398
H          1.84762       -4.16864        0.89658
C          2.85950       -4.60951        3.49582
C          2.93571       -2.24389        4.44965
H          3.58374       -4.92032        4.26114
H          3.11512       -5.13979        2.57376
H          1.87037       -4.97992        3.81636
C          2.96574       -2.85184        5.84890
C          2.98911       -0.82801        4.28862
H          3.99713       -3.07687        6.17310
H          2.40160       -3.79067        5.89595
H          2.53211       -2.17805        6.59668
C          3.14740        0.06874        5.51350
H          3.50336        1.06963        5.25073
H          3.86620       -0.35195        6.22967
H          2.19202        0.19651        6.05154
C          2.88643        1.26065        2.81999
H          2.15517        1.73304        3.49133
H          2.61709        1.55494        1.80505
H          3.87030        1.69996        3.05375
