67
/cluster/projects/nn2506k/marcof/RuC_BondLength/evolutionary_desing/RUN28052021044732/Gen009/M00000078_I_DFT.out	Energy: -781418.9216321
Ru        -0.15147        0.13937        0.05434
C         -0.43169       -0.60682        1.68641
C          1.76967       -0.05757       -0.22006
Cl        -0.96612       -1.66542       -1.32794
Cl        -0.22544        2.47208        0.67552
H          0.29258       -1.07082        2.36020
H         -1.48803       -0.58388        2.03108
N          2.38800        0.38119       -1.39098
N          2.76656       -0.58901        0.58834
C          3.86091        0.15769       -1.39823
C          1.76996        0.99942       -2.55649
C          4.12174       -0.52141       -0.03680
H          4.39019        1.11596       -1.50057
H          4.14460       -0.47815       -2.24891
H          4.80173        0.06007        0.60246
H          4.53814       -1.53391       -0.14173
C          1.70633        2.42201       -2.63459
C          1.36780        0.17109       -3.64551
C          2.32904        3.30150       -1.55976
C          1.07459        3.01486       -3.76566
H          2.68088        2.71829       -0.70674
H          1.60875        4.02687       -1.16336
H          3.18437        3.86568       -1.96855
C          0.95859        4.53257       -3.86896
C          0.53952        2.19095       -4.79843
H          1.08738        4.88221       -4.90190
H          1.70670        5.04700       -3.25760
H         -0.03070        4.88207       -3.52590
C         -0.23850        2.82341       -5.94874
C          0.74057        0.78012       -4.76993
H          0.42038        3.09239       -6.79326
H         -0.75210        3.73932       -5.63425
H         -1.00456        2.14337       -6.33958
C          0.26953       -0.07837       -5.93963
H          0.81231       -1.02717       -6.00017
H          0.40270        0.43342       -6.90173
H         -0.80180       -0.32759       -5.84609
C          1.62794       -1.32849       -3.63672
H          2.00583       -1.67243       -2.67204
H          2.36441       -1.59928       -4.41226
H          0.71168       -1.89786       -3.83227
C          2.69496       -1.18695        1.90762
C          2.53828       -2.59965        2.01475
C          2.89784       -0.35994        3.05038
C          2.32789       -3.45701        0.77349
C          2.55557       -3.19266        3.31080
H          3.16636       -4.15531        0.61772
H          2.21990       -2.84976       -0.12717
H          1.41303       -4.06124        0.85665
C          2.39981       -4.70244        3.46765
C          2.71552       -2.37496        4.46865
H          2.55248       -5.23611        2.52516
H          1.39227       -4.97002        3.82979
H          3.11982       -5.10864        4.19197
C          2.68267       -3.00989        5.85559
C          2.91072       -0.96788        4.33953
H          2.05523       -3.90817        5.87992
H          2.28859       -2.32030        6.61111
H          3.69224       -3.31061        6.18712
C          3.12927       -0.11854        5.58806
H          2.18718        0.03607        6.14168
H          3.52711        0.87261        5.35210
H          3.83499       -0.59610        6.28228
C          3.07097        1.14589        2.90256
H          2.33864        1.69326        3.51312
H          2.92329        1.47352        1.87196
H          4.07340        1.47045        3.22619
