103
/cluster/projects/nn2506k/marcof/RuC_BondLength/evolutionary_desing/RUN28052021044732/Gen035/M00000216_I_DFT.out	Energy: -1077245.7315114
Ru         0.04260        0.57222        0.17938
C         -0.37529       -0.08549        1.81935
C          1.94449        0.18387       -0.08763
Cl        -1.05939       -1.11863       -1.15276
Cl         0.29127        2.90006        0.80977
H          0.24987       -0.62937        2.53041
H         -1.42536        0.10536        2.13073
N          2.57130        0.52555       -1.29070
N          2.91113       -0.31342        0.77666
C          4.10057        0.53770       -1.14274
C          1.87339        0.75839       -2.56471
C          4.29170       -0.44118        0.10039
C          4.58716        1.98288       -0.83369
C          4.82628        0.08115       -2.42973
C          5.44631       -0.03085        1.04868
C          4.56708       -1.91656       -0.30277
H          5.34172        0.97735        1.45049
H          6.39910       -0.08644        0.50327
H          5.50953       -0.73050        1.89162
H          3.82411       -2.31814       -0.99395
H          4.58384       -2.54397        0.59414
H          5.55530       -1.99718       -0.77512
H          4.07388        2.42033        0.02823
H          4.41334        2.62340       -1.70072
H          5.66749        1.99011       -0.63906
H          4.56150       -0.92906       -2.74549
H          5.91294        0.11550       -2.26674
H          4.59532        0.76565       -3.25579
C          1.53524        2.07462       -3.02748
C          1.54191       -0.37771       -3.37984
C          1.80713        3.38211       -2.28408
C          0.85192        2.20017       -4.26342
C          2.69969        4.39864       -3.05419
H          0.83848        3.86872       -2.09008
H          2.23025        3.19242       -1.29793
C          2.93298        5.70570       -2.25770
H          3.67317        3.94233       -3.30236
H          2.23290        4.65127       -4.01990
C          3.79495        6.73952       -3.01599
H          3.41241        5.46826       -1.29222
H          1.95632        6.15613       -2.00907
H          4.79341        6.33542       -3.24971
H          3.93607        7.65379       -2.41795
H          3.32284        7.03268       -3.96763
C          0.51256        1.10235       -5.07443
H          0.56488        3.20077       -4.59001
C         -0.27289        1.27976       -6.36665
C          0.88147       -0.17657       -4.61052
C         -1.81487        1.21664       -6.15635
H         -0.01979        2.24797       -6.82943
H          0.01499        0.49784       -7.08887
C         -2.61437        1.38550       -7.47007
H         -2.07631        0.25402       -5.68625
H         -2.11383        2.00015       -5.43988
C         -4.14443        1.32509       -7.26389
H         -2.31198        0.59947       -8.18498
H         -2.34765        2.34939       -7.93932
H         -4.44999        0.36033       -6.82857
H         -4.68029        1.44738       -8.21870
H         -4.48659        2.12063       -6.58288
H          0.62391       -1.05325       -5.20787
C          1.84214       -1.81910       -3.00142
H          1.09119       -2.48482       -3.44433
H          1.81134       -1.97876       -1.92378
H          2.82579       -2.13993       -3.38030
C          2.71652       -0.77300        2.14715
C          2.32658       -2.12861        2.42057
C          2.93937        0.13396        3.23188
C          1.82309       -3.10039        1.34872
C          2.26684       -2.55023        3.77080
C          2.41577       -4.53595        1.37821
H          0.72938       -3.18644        1.47114
H          1.96376       -2.67393        0.35383
C          1.83731       -5.43850        0.26067
H          3.51329       -4.49511        1.28204
H          2.21140       -5.01274        2.35027
C          2.39416       -6.87907        0.28920
H          2.04798       -4.98646       -0.72424
H          0.73761       -5.46991        0.35212
H          3.48907       -6.88856        0.16398
H          1.95988       -7.48787       -0.51937
H          2.16283       -7.37864        1.24383
C          2.55799       -1.69649        4.85586
H          1.95478       -3.57293        3.98344
C          2.53004       -2.20412        6.29161
C          2.86551       -0.35328        4.55804
C          3.90226       -2.75881        6.77574
H          2.22213       -1.39070        6.96880
H          1.77501       -3.00114        6.39125
C          3.86772       -3.27511        8.23405
H          4.21984       -3.57487        6.10462
H          4.66494       -1.96677        6.68477
C          5.22703       -3.82583        8.71967
H          3.10162       -4.06567        8.32277
H          3.54613       -2.45714        8.90278
H          5.56162       -4.67046        8.09622
H          5.16240       -4.18285        9.75969
H          6.00913       -3.05074        8.68008
H          3.03559        0.34956        5.37659
C          3.19634        1.62341        3.05722
H          2.53389        2.19386        3.72407
H          2.99845        1.97142        2.04345
H          4.23077        1.88624        3.33051
