77
/cluster/projects/nn2506k/marcof/RuC_BondLength/evolutionary_desing/RUN28052021044948/Gen033/M00000209_I_DFT.out	Energy: -1227946.0566303
Ru        -0.02422       -0.36826       -0.36808
C         -0.28793       -0.63652        1.41208
C          1.90612       -0.16025       -0.43886
Cl        -0.13080       -2.51771       -1.39481
Cl        -0.97589        1.82237       -0.59020
H          0.41450       -0.43807        2.22651
H         -1.31041       -0.94823        1.70623
N          2.54991        0.48855       -1.49985
N          2.92094       -0.65049        0.40258
C          4.05402        0.46013       -1.41525
C          1.92511        1.35259       -2.48713
C          4.78664       -0.19207       -2.62663
C          4.30880       -0.23813       -0.04845
H          4.39996        1.49677       -1.35855
C          4.91437       -1.69579       -2.53387
H          4.29648        0.10761       -3.55903
H          5.79720        0.25852       -2.64961
C          5.19148       -2.26962       -1.34083
H          4.77329       -2.29120       -3.43550
C          5.34595       -1.39514       -0.11439
H          5.29610       -3.35015       -1.24319
H          5.31202       -1.97749        0.81459
H          6.34018       -0.90994       -0.12253
H          4.69413        0.49951        0.67026
C          1.23453        0.83995       -3.63017
C          2.00399        2.78107       -2.34650
N          1.16406       -0.61189       -3.99986
C          0.59821        1.67616       -4.56440
O          2.20156       -1.34172       -3.82328
O          0.08006       -1.02473       -4.55024
C          0.68986        3.07393       -4.43461
H          0.05896        1.20961       -5.38306
C          1.40988        3.59211       -3.33848
C          0.05330        4.03320       -5.41829
H          1.46850        4.67449       -3.25277
C         -0.84808        3.48342       -6.51835
O          0.26716        5.27157       -5.31533
H         -0.29106        2.81512       -7.19410
H         -1.68248        2.90259       -6.09578
H         -1.25062        4.31874       -7.10155
C          2.69169        3.49878       -1.17002
C          1.74905        4.49627       -0.43801
C          3.98310        4.23498       -1.64165
H          2.97092        2.75401       -0.41929
H          1.45944        5.34150       -1.07879
H          2.27150        4.90601        0.43910
H          0.83884        3.99618       -0.09009
H          3.74248        5.06419       -2.32263
H          4.68388        3.57072       -2.17011
H          4.50682        4.66032       -0.77234
C          2.82289       -1.14646        1.76212
C          3.08522       -0.24422        2.84757
C          2.65520       -2.53117        2.09420
N          3.25377        1.22085        2.64250
C          3.18792       -0.64892        4.18668
O          4.22225        1.79984        3.26766
O          2.41313        1.83675        1.89374
C          2.99509       -2.00659        4.51201
H          3.40724        0.10107        4.94143
C          2.72905       -2.90699        3.45950
C          3.07585       -2.53281        5.93080
H          2.59472       -3.95142        3.73018
C          3.33410       -1.55848        7.07500
O          2.93109       -3.76529        6.15094
H          4.29961       -1.04323        6.95051
H          2.55178       -0.78503        7.12596
H          3.34785       -2.11285        8.01959
C          2.41020       -3.65084        1.07185
C          1.06708       -4.38608        1.35300
C          3.57159       -4.68934        1.06716
H          2.34182       -3.20608        0.07392
H          0.22152       -3.68999        1.37096
H          1.09328       -4.93620        2.30547
H          0.87609       -5.11102        0.55002
H          3.61617       -5.25402        2.01003
H          4.55242       -4.22358        0.91009
H          3.40666       -5.41298        0.25540
