80
/cluster/projects/nn2506k/marcof/RuC_BondLength/evolutionary_desing/RUN28052021044732/Gen030/M00000189_I_DFT.out	Energy: -933396.2282757
Ru        -0.08076       -0.19706       -0.13157
C         -0.38230       -0.81561        1.54962
C          1.86363       -0.26922       -0.34705
Cl        -0.74589       -2.16978       -1.36493
Cl        -0.43423        2.14888        0.34241
H          0.33839       -1.13457        2.30541
H         -1.45468       -0.85331        1.83901
N          2.47866        0.25373       -1.49238
N          2.86591       -0.78053        0.47082
C          3.97554        0.36523       -1.28292
C          1.79907        0.94006       -2.59148
C          4.24716       -0.75755       -0.21325
C          4.84006        0.38677       -2.52008
H          4.14856        1.31953       -0.76135
C          5.39136       -0.33144        0.73512
C          4.59356       -2.14631       -0.80564
H          5.52704       -1.05828        1.54534
H          5.21987        0.65423        1.17946
H          6.32761       -0.28681        0.16163
H          3.81974       -2.51515       -1.48665
H          4.71680       -2.87380        0.00374
H          5.54274       -2.09064       -1.35214
C          4.97424       -0.47511       -3.59745
S          5.99773        1.78289       -2.70690
C          5.96142       -0.07663       -4.56478
H          4.38221       -1.37598       -3.71064
C          6.60801        1.10224       -4.24272
H          6.17949       -0.64687       -5.46597
H          7.38876        1.62695       -4.78261
C          1.71486        2.36470       -2.58032
C          1.30837        0.17831       -3.69523
C          2.29572        3.19709       -1.44687
C          1.06957        3.02647       -3.66224
H          2.43868        2.61071       -0.53843
H          1.62000        4.01441       -1.17328
H          3.26111        3.64538       -1.73635
C          1.00707        4.55060       -3.67848
C          0.47069        2.27097       -4.71069
H          0.87711        4.94664       -4.69158
H          1.92469        4.99665       -3.27473
H          0.16912        4.92716       -3.06624
C         -0.32701        2.98655       -5.79751
C          0.61864        0.85451       -4.74513
H         -0.92354        3.80802       -5.37961
H         -1.02283        2.31306       -6.30773
H          0.33118        3.42197       -6.56966
C          0.03835        0.06659       -5.91706
H          0.40732       -0.96150       -5.95510
H          0.28185        0.53567       -6.88133
H         -1.06145        0.00817       -5.85176
C          1.52756       -1.32341       -3.79108
H          0.57842       -1.86610       -3.86515
H          2.03947       -1.71371       -2.91144
H          2.12631       -1.57016       -4.68217
C          2.73324       -1.31033        1.82173
C          2.51752       -2.70729        2.02627
C          2.87024       -0.41358        2.92734
C          2.15665       -3.63909        0.87713
C          2.54626       -3.22019        3.35655
H          2.93835       -4.38988        0.68346
H          1.96949       -3.09493       -0.04734
H          1.23380       -4.18913        1.10939
C          2.36148       -4.71434        3.60315
C          2.72652       -2.34335        4.46515
H          3.01848       -5.07464        4.40584
H          2.57947       -5.31218        2.71285
H          1.32594       -4.95037        3.90472
C          2.72587       -2.92023        5.87757
C          2.87585       -0.94135        4.25312
H          2.56677       -2.15564        6.64335
H          3.68350       -3.41851        6.10807
H          1.93691       -3.67419        6.00356
C          3.04274       -0.01059        5.45239
H          2.11835        0.04804        6.05095
H          3.29769        1.01069        5.15894
H          3.83972       -0.36229        6.12427
C          2.93861        1.09426        2.71791
H          3.88684        1.51997        3.08086
H          2.12685        1.59809        3.26262
H          2.82460        1.36644        1.66889
