79
/cluster/projects/nn2506k/marcof/RuC_BondLength/evolutionary_desing/RUN28052021121055/Gen006/M00000079_I_DFT.out	Energy: -880020.3901115
Ru        -0.14851       -0.18053       -0.18458
C         -0.52074       -1.02811        1.37756
C          1.79916       -0.25373       -0.36958
Cl        -0.80577       -1.90234       -1.74703
Cl        -0.39439        2.08857        0.61845
H          0.16490       -1.45472        2.11209
H         -1.60547       -1.08840        1.61426
N          2.42150        0.44495       -1.39641
N          2.80100       -0.88884        0.37200
C          3.89481        0.30064       -1.38117
C          1.80362        1.17173       -2.49954
C          4.20010       -0.43434       -0.05085
H          4.21788       -0.26860       -2.26247
H          4.37212        1.28742       -1.42695
C          5.40784       -1.45657       -0.16142
H          4.52477        0.30293        0.70005
C          5.79176       -2.05099        1.22616
C          5.17796       -2.61614       -1.16799
C          6.63295       -0.60841       -0.64437
H          5.93768       -1.26032        1.97731
H          6.73963       -2.60361        1.13869
H          5.03631       -2.74302        1.60937
H          4.34399       -3.25590       -0.86743
H          6.08059       -3.24391       -1.21578
H          4.98146       -2.25893       -2.18870
H          6.83203        0.23745        0.03249
H          6.49789       -0.21002       -1.65938
H          7.53400       -1.23873       -0.65894
C          1.68856        2.59028       -2.40847
C          1.45971        0.46915       -3.69247
C          2.24931        3.35458       -1.21826
C          1.06053        3.29371       -3.47560
H          2.58022        2.68374       -0.42356
H          1.49685        4.01665       -0.77385
H          3.10636        3.97808       -1.52547
C          0.89605        4.80827       -3.39693
C          0.57095        2.58270       -4.60984
H          0.98381        5.28111       -4.38356
H          1.64801        5.27075       -2.74900
H         -0.09194        5.08251       -2.98773
C         -0.21576        3.32208       -5.68827
C          0.82564        1.18722       -4.74742
H         -0.93656        2.66275       -6.18562
H          0.44437        3.73428       -6.47185
H         -0.78394        4.16073       -5.26879
C          0.40898        0.46151       -6.02310
H          0.98666       -0.45403       -6.18527
H          0.54186        1.09064       -6.91302
H         -0.65411        0.16653       -5.98544
C          1.79635       -1.00451       -3.87089
H          2.55396       -1.13273       -4.66256
H          0.91402       -1.58963       -4.15439
H          2.18302       -1.45311       -2.95458
C          2.60202       -1.54041        1.66062
C          2.28502       -2.93062        1.70674
C          2.76589       -0.77524        2.85358
C          1.99047       -3.71233        0.43464
C          2.18965       -3.57430        2.97760
H          2.03971       -3.07934       -0.45081
H          0.97555       -4.13425        0.46124
H          2.68815       -4.55322        0.29928
C          1.85620       -5.06209        3.06189
C          2.40724       -2.83185        4.17587
H          2.58699       -5.60358        3.68120
H          1.84371       -5.54432        2.08153
H          0.86420       -5.22842        3.51396
C          2.30319       -3.50974        5.53907
C          2.70325       -1.43883        4.11252
H          3.30075       -3.69373        5.97435
H          1.79042       -4.47457        5.48895
H          1.75195       -2.88683        6.25682
C          2.93713       -0.65449        5.40023
H          3.45344       -1.26097        6.15501
H          1.98662       -0.31867        5.85072
H          3.54678        0.24001        5.23307
C          2.94682        0.73711        2.80811
H          2.67394        1.15302        1.83648
H          3.98181        1.04133        3.03816
H          2.29725        1.22684        3.54589
