91
/cluster/projects/nn2506k/marcof/RuC_BondLength/evolutionary_desing/RUN28052021121055/Gen014/M00000119_I_DFT.out	Energy: -978598.0044208
Ru         0.12337        0.46872        0.19475
C         -0.31185       -0.51459        1.65713
C          2.02470        0.10676       -0.18732
Cl        -1.04366       -0.89979       -1.43245
Cl         0.32468        2.59417        1.36233
H          0.30139       -1.20246        2.24175
H         -1.36316       -0.38002        1.99354
N          2.62525        0.64288       -1.32640
N          2.98656       -0.57891        0.53817
C          4.17624        0.55471       -1.26085
C          1.85685        1.18237       -2.46547
C          4.35370       -0.66670       -0.20827
C          4.68205        1.96148       -0.74911
C          4.83922        0.24212       -2.64131
C          5.58235       -0.44121        0.73618
C          4.45350       -2.11452       -0.82759
C          6.04761       -1.56056        1.70340
H          6.43039       -0.22656        0.07270
H          5.41781        0.46594        1.32221
H          6.93462       -1.19524        2.24710
H          6.34793       -2.47911        1.18489
H          5.29416       -1.82627        2.44893
C          5.75032       -2.60629       -1.53071
H          4.28551       -2.78478        0.02108
H          3.61472       -2.28029       -1.50894
H          5.81327       -2.29758       -2.57990
H          5.75462       -3.70835       -1.52178
H          6.67090       -2.27853       -1.03237
C          6.19453        2.31848       -0.69167
H          4.22938        2.67569       -1.43939
H          4.23498        2.17073        0.23034
H          6.29087        3.41633       -0.70366
H          6.76397        1.93842       -1.54945
H          6.69081        1.96753        0.21958
C          4.90221        1.33644       -3.73760
H          5.87516       -0.04709       -2.41835
H          4.36324       -0.64082       -3.07368
H          5.43666        0.92106       -4.60782
H          5.45375        2.23027       -3.42082
H          3.91380        1.65271       -4.08163
C          1.53403        2.57544       -2.55403
C          1.46895        0.28802       -3.51570
C          1.89116        3.58470       -1.47473
C          0.81703        3.05604       -3.69310
H          1.01398        4.18140       -1.19726
H          2.66542        4.28908       -1.82181
H          2.23746        3.11373       -0.55956
C          0.49212        4.54382       -3.80514
C          0.39904        2.16294       -4.71778
H         -0.48126        4.78224       -3.34162
H          0.44662        4.87257       -4.85015
H          1.24213        5.16742       -3.30680
C         -0.46619        2.66546       -5.87077
C          0.76148        0.78863       -4.64509
H         -1.15045        1.88738       -6.22845
H          0.14134        2.98993       -6.73393
H         -1.08608        3.51744       -5.56990
C          0.36748       -0.16402       -5.77013
H          0.31099        0.34745       -6.73824
H         -0.61814       -0.62314       -5.57918
H          1.08510       -0.98450       -5.88374
C          1.73967       -1.20546       -3.45345
H          2.49447       -1.51833       -4.19374
H          0.82225       -1.76911       -3.65882
H          2.07760       -1.50848       -2.46652
C          2.75858       -1.23525        1.82424
C          2.30563       -2.59284        1.86528
C          3.00820       -0.51353        3.03214
C          1.76887       -3.30125        0.62578
C          2.23841       -3.26547        3.12291
H          0.77280       -3.71815        0.83228
H          2.40566       -4.13850        0.30209
H          1.65156       -2.61860       -0.21425
C          1.83227       -4.73656        3.18001
C          2.53515       -2.56697        4.32868
H          1.90257       -5.22482        2.20383
H          0.79335       -4.86269        3.53050
H          2.47599       -5.30103        3.86881
C          2.41890       -3.26884        5.67862
C          2.90636       -1.19203        4.28217
H          3.40449       -3.60522        6.04552
H          1.77130       -4.15019        5.63489
H          2.00343       -2.60192        6.44479
C          3.19359       -0.44952        5.58397
H          3.75978       -1.07400        6.28816
H          2.25998       -0.15345        6.09321
H          3.77300        0.46439        5.42401
C          3.32537        0.97378        3.02221
H          4.34613        1.18195        3.38097
H          2.63195        1.51906        3.67654
H          3.21236        1.40460        2.02972
