67
/cluster/projects/nn2506k/marcof/RuC_BondLength/evolutionary_desing/RUN28052021121055/Gen033/M00000218_I_DFT.out	Energy: -781418.9146228
Ru        -0.17169        0.04550       -0.04598
C         -0.49937       -0.74930        1.55399
C          1.76071       -0.11743       -0.25510
Cl        -0.91217       -1.72966       -1.50602
Cl        -0.29950        2.35880        0.63597
H          0.20716       -1.22183        2.24057
H         -1.56751       -0.75008        1.86094
N          2.41461        0.36307       -1.38975
N          2.73566       -0.65555        0.57533
C          3.89029        0.16289       -1.34790
C          1.82966        1.00068       -2.56191
C          4.11210       -0.54684        0.00480
H          4.21552       -0.44634       -2.20322
H          4.40696        1.13163       -1.40633
H          4.75585        0.03010        0.68445
H          4.55170       -1.54841       -0.10969
C          1.74518        2.42361       -2.60729
C          1.48154        0.19372       -3.68511
C          2.31267        3.28539       -1.48843
C          1.14598        3.03475       -3.74631
H          2.64139        2.68645       -0.63710
H          1.56628        3.98947       -1.10202
H          3.17351        3.87269       -1.85043
C          1.00903        4.55259       -3.81676
C          0.66286        2.22876       -4.81806
H          1.72509        5.06300       -3.16502
H          0.00195        4.87810       -3.50313
H          1.17081        4.92995       -4.83522
C         -0.08257        2.87772       -5.98067
C          0.88577        0.82093       -4.81663
H         -0.62238        3.77739       -5.66316
H         -0.82246        2.19595       -6.41631
H          0.60243        3.17801       -6.79326
C          0.47142       -0.01495       -6.02357
H          1.02848       -0.95531       -6.08547
H          0.63463        0.52150       -6.96748
H         -0.59934       -0.27938       -5.97747
C          1.76585       -1.30142       -3.70347
H          2.11652       -1.66314       -2.73501
H          2.53258       -1.54158       -4.45950
H          0.86616       -1.87996       -3.94398
C          2.62493       -1.29532        1.87209
C          2.48582       -2.71276        1.92979
C          2.77382       -0.50177        3.04645
C          2.33466       -3.53388        0.65583
C          2.46426       -3.34572        3.20677
H          3.18631       -4.21885        0.51318
H          2.25625       -2.90076       -0.22994
H          1.42383       -4.14925        0.68376
C          2.32372       -4.86152        3.31144
C          2.57101       -2.56266        4.39431
H          2.51423       -5.36343        2.35850
H          1.30849       -5.15263        3.63144
H          3.02487       -5.28147        4.04640
C          2.49799       -3.24106        5.75896
C          2.75039       -1.14976        4.31580
H          1.88353       -4.14820        5.73294
H          2.06696       -2.58089        6.52058
H          3.49943       -3.53813        6.11736
C          2.91282       -0.33705        5.59687
H          1.94915       -0.20885        6.11921
H          3.30826        0.66476        5.40604
H          3.59755       -0.82858        6.30219
C          2.92801        1.01039        2.95155
H          2.16963        1.52711        3.55693
H          2.80575        1.36873        1.92784
H          3.91527        1.33902        3.31540
