73
/cluster/projects/nn2506k/marcof/RuC_BondLength/evolutionary_desing/RUN28052021044732/Gen023/M00000155_I_DFT.out	Energy: -1017968.7269313
Ru         0.10212        0.58368        0.23089
C         -0.32812       -0.36502        1.71848
C          1.97441        0.16070       -0.15586
Cl        -1.09007       -0.75452       -1.38410
Cl         0.48189        2.73831        1.26474
H          0.26639       -1.08356        2.28635
H         -1.36062       -0.18119        2.08623
N          2.59002        0.63009       -1.32055
N          2.94414       -0.48236        0.60375
C          4.12179        0.54937       -1.23166
C          1.90164        1.11290       -2.52206
C          4.29884       -0.58569       -0.12572
C          4.69504        1.92327       -0.77758
C          4.77826        0.21077       -2.59103
C          5.49627       -0.34365        0.82747
C          4.49088       -2.01157       -0.71672
H          5.44706        0.61055        1.35352
H          6.42985       -0.36873        0.24795
H          5.55537       -1.14498        1.57471
H          3.69342       -2.30213       -1.40363
H          4.53271       -2.74497        0.09604
H          5.44708       -2.06914       -1.25314
H          4.24432        2.27869        0.15460
H          4.51497        2.67323       -1.55302
H          5.78178        1.85662       -0.63819
H          4.42790       -0.72842       -3.02212
H          5.86765        0.14352       -2.46111
H          4.58451        1.01173       -3.31572
C          1.66324        2.51058       -2.73915
C          1.51482        0.16103       -3.52541
C          1.99680        3.62825       -1.76369
C          1.06225        2.91522       -3.95353
H          1.12769        4.28980       -1.64631
H          2.82119        4.24756       -2.15247
H          2.25971        3.27457       -0.76943
C          0.69646        1.99256       -4.95196
H          0.87063        3.97383       -4.12602
C          0.92078        0.62076       -4.71946
C          0.07181        2.51233       -6.20806
H          0.61764       -0.10261       -5.47295
O         -0.25799        1.48400       -7.09693
O         -0.14091        3.72027       -6.46326
C         -0.90060        1.89215       -8.36458
H         -1.84796        2.41113       -8.16401
H         -0.23768        2.55672       -8.93577
H         -1.07433        0.95374       -8.90229
C          1.69273       -1.34280       -3.39757
H          0.79346       -1.85417       -3.76263
H          1.84470       -1.66146       -2.36749
H          2.54114       -1.69399       -4.00735
C          2.76255       -1.13614        1.89101
C          2.33252       -2.50416        1.95082
C          3.05983       -0.42402        3.09719
C          1.80562       -3.29059        0.75767
C          2.32077       -3.15508        3.20385
H          0.88472       -3.81904        1.04341
H          2.52248       -4.05716        0.42725
H          1.56138       -2.65447       -0.09427
C          2.68574       -2.48716        4.39234
H          2.00785       -4.19695        3.26627
C          3.02315       -1.11962        4.32736
C          2.66034       -3.25711        5.67546
H          3.25439       -0.58440        5.24592
O          3.02090       -2.46717        6.77076
O          2.35779       -4.46801        5.78342
C          3.02061       -3.13318        8.09185
H          2.01677       -3.51024        8.33080
H          3.73330       -3.96929        8.10030
H          3.32392       -2.35136        8.79645
C          3.37393        1.06244        3.15084
H          2.71831        1.55272        3.88464
H          3.21047        1.56456        2.19744
H          4.41128        1.23792        3.47664
