73
/cluster/projects/nn2506k/marcof/RuC_BondLength/evolutionary_desing/RUN28052021044732/Gen023/M00000154_I_DFT.out	Energy: -1204315.2817284
Ru        -0.05418        0.27777        0.03657
C         -0.48304       -0.79242        1.44085
C          1.84897        0.03023       -0.20682
Cl        -0.95281       -1.07730       -1.73980
Cl        -0.05742        2.37076        1.23829
H          0.16501       -1.42884        2.04585
H         -1.55915       -0.76889        1.71518
N          2.52197        0.65932       -1.27272
N          2.80477       -0.67403        0.53535
C          3.98616        0.42580       -1.23872
C          1.88747        1.18952       -2.49371
C          4.18239       -0.50102       -0.00037
C          4.86312        1.70807       -1.12922
H          4.31569       -0.05338       -2.16963
C          4.93614       -1.81381       -0.36941
H          4.82007       -0.03115        0.76010
F          4.25282       -2.63786       -1.28666
F          6.17931       -1.50551       -0.97208
F          5.23257       -2.59781        0.75777
F          4.57602        2.50138        0.00161
F          6.23111        1.35654       -1.02081
F          4.75849        2.52698       -2.26311
C          1.52281        2.56633       -2.56738
C          1.72810        0.31032       -3.60684
C          1.79918        3.54055       -1.43470
C          0.90158        3.04190       -3.76129
H          2.16919        3.04713       -0.53867
H          0.89077        4.07893       -1.13921
H          2.54593        4.28851       -1.74296
C          0.48499        4.50567       -3.87334
C          0.67462        2.15987       -4.85586
H          1.00623        5.14260       -3.15337
H         -0.59628        4.63064       -3.69016
H          0.69456        4.91001       -4.87258
C         -0.07067        2.65162       -6.09298
C          1.13786        0.81387       -4.79891
H         -0.69261        1.85940       -6.52754
H          0.62305        2.99218       -6.88148
H         -0.73608        3.49004       -5.86178
C          0.97811       -0.10314       -6.00688
H          1.77832       -0.85033       -6.06212
H          0.99641        0.45595       -6.94957
H          0.02287       -0.65528       -5.96901
C          2.14405       -1.15139       -3.54880
H          3.05256       -1.34023       -4.14576
H          1.35218       -1.79493       -3.94987
H          2.32936       -1.49478       -2.53211
C          2.64942       -1.30705        1.84788
C          2.27714       -2.68146        1.91760
C          2.95506       -0.54493        3.01241
C          1.87715       -3.46311        0.67363
C          2.23578       -3.31074        3.19619
H          1.77977       -2.82355       -0.20363
H          0.90550       -3.95657        0.81805
H          2.60878       -4.24956        0.43595
C          1.88015       -4.79036        3.30839
C          2.53315       -2.56359        4.37405
H          2.54180       -5.30710        4.01689
H          1.96659       -5.31154        2.35091
H          0.84608       -4.93654        3.66540
C          2.43668       -3.22797        5.74380
C          2.91156       -1.19254        4.28147
H          2.09473       -2.52421        6.51224
H          3.41549       -3.61796        6.07355
H          1.73661       -4.07019        5.74415
C          3.26848       -0.41759        5.54587
H          2.36600       -0.05319        6.06666
H          3.89095        0.45715        5.33321
H          3.82289       -1.04206        6.25818
C          3.28975        0.93805        2.93050
H          2.69966        1.50951        3.65896
H          3.06258        1.36630        1.95434
H          4.35241        1.13194        3.15237
