71
/cluster/projects/nn2506k/marcof/RuC_BondLength/evolutionary_desing/RUN28052021121055/Gen024/M00000173_I_DFT.out	Energy: -1048107.0710982
Ru         0.10111        0.85315       -0.09257
C         -0.41263        0.25517        1.54346
C          1.92648        0.20705       -0.27079
Cl        -1.27536       -0.56622       -1.46937
Cl         0.72155        3.14158        0.31557
H          0.05150       -0.54195        2.12786
H         -1.35708        0.68229        1.94073
N          2.59260        0.32022       -1.49631
N          2.85298       -0.24755        0.66063
C          4.12160        0.23359       -1.31494
C          1.91911        0.24757       -2.77815
C          4.20059       -0.63767        0.01571
C          4.68330        1.66640       -1.11048
C          4.81607       -0.40329       -2.53766
C          5.40357       -0.26855        0.91862
C          4.24639       -2.17093       -0.22717
H          5.40557        0.77810        1.23075
H          6.33508       -0.46439        0.36956
H          5.41950       -0.90054        1.81685
H          3.38138       -2.52969       -0.78655
H          4.28369       -2.69956        0.73319
H          5.16278       -2.43799       -0.77069
H          4.20429        2.17682       -0.26885
H          4.50538        2.26074       -2.00831
H          5.76745        1.63068       -0.93601
H          4.42595       -1.39263       -2.79272
H          5.89198       -0.49921       -2.33447
H          4.70857        0.25249       -3.41128
C          1.51401        1.35250       -3.59418
C          1.58030       -1.03516       -3.28131
C          0.80135        1.11100       -4.79700
C          1.85139        2.81859       -3.35303
C          0.49331       -0.18365       -5.26891
H          0.48842        1.96596       -5.39588
C         -0.30542       -0.39156       -6.54786
C          0.90928       -1.27626       -4.48209
C         -1.83641       -0.47564       -6.29331
H          0.02353       -1.31792       -7.04513
H         -0.10465        0.43312       -7.24998
H         -2.21432        0.44792       -5.83068
H         -2.08314       -1.30843       -5.61905
H         -2.37311       -0.62954       -7.24224
H          0.69175       -2.30544       -4.76478
C          0.70857        3.83130       -3.36272
O          3.04495        3.19773       -3.25751
H          0.54538        4.19296       -4.39218
H         -0.23127        3.40854       -2.99135
H          0.99492        4.69216       -2.74819
F          1.93113       -2.16822       -2.53146
C          2.68877       -0.29116        2.08888
C          2.37510       -1.47458        2.83575
C          2.95978        0.87060        2.85211
C          2.34400       -1.41965        4.25302
C          1.95834       -2.78236        2.18215
C          2.57306       -0.23034        4.98274
H          2.09760       -2.32434        4.80693
C          2.51914       -0.21026        6.50481
C          2.88622        0.93370        4.24972
C          3.90359       -0.44418        7.17015
H          1.81885       -0.98231        6.86008
H          2.12035        0.75753        6.84711
H          4.32303       -1.42150        6.88758
H          3.80928       -0.41861        8.26652
H          4.62564        0.33107        6.87356
H          3.08358        1.88596        4.74127
C          2.38862       -4.09759        2.84148
O          1.24385       -2.79556        1.15013
H          3.39534       -4.04511        3.27752
H          1.68533       -4.36950        3.64577
H          2.34601       -4.89391        2.08854
F          3.35165        2.03946        2.19353
