47
/cluster/projects/nn2506k/marcof/RuC_BondLength/evolutionary_desing/RUN28052021121055/Gen036/M00000235_I_DFT.out	Energy: -632744.6153645
Ru         0.11066        0.41175        0.19358
C         -0.04505       -0.01582        1.95268
C          1.98912        0.08571       -0.14111
Cl        -0.71825       -1.56534       -0.94290
Cl         0.27033        2.80407        0.43247
H          0.74313       -0.27385        2.66610
H         -1.07560        0.05654        2.36045
N          2.64670        0.70097       -1.20525
N          2.93322       -0.69611        0.51870
C          4.11529        0.51848       -1.11481
C          2.07004        1.49482       -2.25574
C          4.25893       -0.74547       -0.23102
H          4.58176        1.39401       -0.63376
H          4.54605        0.39028       -2.11384
C          4.43450       -2.05017       -1.07372
C          5.54895       -0.72839        0.62822
C          5.96098       -2.13858       -1.37238
H          3.81507       -2.03839       -1.98103
H          4.11494       -2.91026       -0.47059
C          6.65787       -1.15767       -0.36755
H          6.32078       -3.16913       -1.24027
H          6.18575       -1.85679       -2.41142
H          7.05871       -0.28175       -0.90021
H          7.50457       -1.62784        0.15258
H          5.46771       -1.47340        1.43053
H          5.73773        0.24910        1.09356
C          2.67106        2.72500       -2.61856
C          0.94159        1.02955       -2.97302
C          2.13482        3.48744       -3.67315
H          3.52691        3.10466       -2.06132
C          0.99153        3.04018       -4.37194
H          2.59810        4.44007       -3.93571
C          0.39947        1.81132       -4.01380
H          0.57209        3.63931       -5.18135
H         -0.47767        1.44626       -4.55063
H          0.50500        0.06023       -2.73992
C          2.67549       -1.62130        1.60005
C          3.19728       -1.35306        2.88892
C          1.93704       -2.80757        1.37599
C          2.99045       -2.26809        3.94196
H          3.73868       -0.42416        3.06691
C          2.25501       -3.45303        3.71816
H          3.39203       -2.05004        4.93290
C          1.72554       -3.71421        2.43565
H          2.09015       -4.15847        4.53416
H          1.14266       -4.61909        2.25713
H          1.50497       -2.99688        0.39599
