80
/cluster/projects/nn2506k/marcof/RuC_BondLength/evolutionary_desing/RUN28052021044732/Gen033/M00000204_I_DFT.out	Energy: -933396.2282757
Ru        -0.08076       -0.19704       -0.13157
C         -0.38230       -0.81561        1.54961
C          1.86364       -0.26921       -0.34704
Cl        -0.74591       -2.16974       -1.36495
Cl        -0.43421        2.14890        0.34244
H          0.33839       -1.13460        2.30540
H         -1.45468       -0.85329        1.83900
N          2.47867        0.25374       -1.49238
N          2.86591       -0.78051        0.47082
C          3.97554        0.36524       -1.28292
C          1.79907        0.94007       -2.59148
C          4.24716       -0.75754       -0.21324
C          4.84006        0.38677       -2.52008
H          4.14856        1.31954       -0.76135
C          5.39136       -0.33142        0.73513
C          4.59356       -2.14630       -0.80562
H          5.52704       -1.05825        1.54536
H          5.21987        0.65425        1.17947
H          6.32761       -0.28679        0.16164
H          3.81975       -2.51514       -1.48664
H          4.71680       -2.87378        0.00376
H          5.54275       -2.09063       -1.35213
C          4.97425       -0.47511       -3.59744
S          5.99773        1.78290       -2.70690
C          5.96143       -0.07663       -4.56477
H          4.38223       -1.37598       -3.71063
C          6.60801        1.10225       -4.24271
H          6.17951       -0.64687       -5.46596
H          7.38876        1.62696       -4.78261
C          1.71486        2.36471       -2.58032
C          1.30838        0.17831       -3.69523
C          2.29572        3.19710       -1.44688
C          1.06956        3.02647       -3.66224
H          2.43868        2.61073       -0.53844
H          1.62000        4.01442       -1.17330
H          3.26111        3.64539       -1.73636
C          1.00706        4.55059       -3.67849
C          0.47069        2.27096       -4.71070
H          0.87707        4.94664       -4.69159
H          1.92469        4.99665       -3.27475
H          0.16912        4.92716       -3.06623
C         -0.32702        2.98653       -5.79752
C          0.61865        0.85450       -4.74513
H         -0.92356        3.80800       -5.37962
H         -1.02283        2.31304       -6.30773
H          0.33117        3.42196       -6.56966
C          0.03837        0.06657       -5.91706
H          0.40736       -0.96150       -5.95511
H          0.28186        0.53566       -6.88133
H         -1.06143        0.00813       -5.85176
C          1.52757       -1.32341       -3.79107
H          0.57844       -1.86610       -3.86515
H          2.03948       -1.71371       -2.91143
H          2.12633       -1.57016       -4.68216
C          2.73324       -1.31033        1.82174
C          2.51752       -2.70729        2.02626
C          2.87023       -0.41358        2.92734
C          2.15664       -3.63907        0.87712
C          2.54625       -3.22020        3.35654
H          2.93834       -4.38987        0.68344
H          1.96949       -3.09492       -0.04736
H          1.23379       -4.18912        1.10937
C          2.36147       -4.71435        3.60313
C          2.72651       -2.34337        4.46514
H          3.01847       -5.07465        4.40581
H          2.57945       -5.31218        2.71282
H          1.32593       -4.95038        3.90470
C          2.72586       -2.92025        5.87756
C          2.87584       -0.94136        4.25313
H          2.56677       -2.15567        6.64334
H          3.68348       -3.41854        6.10805
H          1.93690       -3.67421        6.00355
C          3.04273       -0.01061        5.45240
H          2.11834        0.04801        6.05096
H          3.29767        1.01067        5.15896
H          3.83972       -0.36231        6.12427
C          2.93860        1.09425        2.71792
H          3.88684        1.51996        3.08088
H          2.12684        1.59808        3.26263
H          2.82460        1.36645        1.66891
