101
/cluster/projects/nn2506k/marcof/RuC_BondLength/evolutionary_desing/RUN28052021044948/Gen018/M00000132_I_DFT.out	Energy: -1076507.3103587
Ru         0.15646        0.55860        0.03563
C         -0.33258       -0.01202        1.68877
C          2.03742        0.05167       -0.15251
Cl        -0.89662       -1.18200       -1.26983
Cl         0.44194        2.90982        0.50980
H          0.25291       -0.54146        2.44311
H         -1.38824        0.21645        1.95251
N          2.72099        0.31996       -1.33441
N          2.93760       -0.55907        0.71647
C          4.12048       -0.16728       -1.31606
C          2.20217        0.92336       -2.55422
C          4.34544       -0.67685        0.13692
H          4.80622        0.64757       -1.57919
H          4.25011       -0.96908       -2.05744
C          4.96781       -2.10463        0.17314
C          5.43669        0.14809        0.88999
C          6.48075       -1.88098       -0.09702
H          4.50451       -2.78539       -0.55175
H          4.82725       -2.53253        1.17378
C          6.78433       -0.41356        0.36295
H          7.09130       -2.61730        0.44534
H          6.71188       -2.00426       -1.16583
H          7.15912        0.18441       -0.48125
H          7.55850       -0.37751        1.14293
H          5.35183       -0.04481        1.96625
H          5.33173        1.22923        0.73228
C          2.30949        2.33386       -2.75401
C          1.69472        0.07904       -3.59002
C          3.04186        3.26997       -1.79795
C          1.75667        2.88246       -3.93526
C          4.40362        3.77838       -2.35769
H          2.40358        4.14108       -1.58950
H          3.20634        2.78475       -0.83079
C          5.13319        4.73069       -1.37950
H          5.05891        2.92044       -2.58890
H          4.23827        4.30069       -3.31446
C          6.48236        5.25247       -1.92211
H          5.30200        4.21126       -0.41927
H          4.47567        5.58745       -1.15070
H          7.17949        4.42401       -2.12822
H          6.96820        5.92639       -1.19874
H          6.34479        5.81312       -2.86061
C          1.15716        2.08659       -4.93399
H          1.79967        3.96465       -4.07350
C          0.50181        2.71515       -6.15653
C          1.16905        0.68537       -4.75231
C         -1.00810        3.03200       -5.94259
H          1.02266        3.64981       -6.42260
H          0.59915        2.03972       -7.02258
C         -1.67717        3.66700       -7.18470
H         -1.53736        2.10251       -5.67363
H         -1.11585        3.70972       -5.07908
C         -3.17502        3.98278       -6.97516
H         -1.56567        2.98627       -8.04754
H         -1.14297        4.59607       -7.45267
H         -3.74570        3.07007       -6.74073
H         -3.61745        4.43243       -7.87838
H         -3.32073        4.68956       -6.14273
H          0.75482        0.04308       -5.53197
C          1.75989       -1.43848       -3.52711
H          2.70959       -1.79814       -3.96091
H          0.94469       -1.88589       -4.10947
H          1.67602       -1.82235       -2.50773
C          2.65489       -1.05174        2.05393
C          2.83289       -0.19104        3.18136
C          2.21096       -2.40318        2.23761
C          3.13901        1.29617        3.07089
C          2.64271       -0.72519        4.47806
H          2.36096        1.87551        3.58973
H          3.16215        1.65116        2.03982
H          4.09981        1.54272        3.54947
C          2.25736       -2.06467        4.69533
H          2.77746       -0.06256        5.33592
C          2.09404       -2.62131        6.10397
C          2.02508       -2.87157        3.55948
C          3.39919       -3.25169        6.67334
H          1.76544       -1.82008        6.78597
H          1.30200       -3.38797        6.11242
C          3.22570       -3.81795        8.10292
H          3.73710       -4.05615        5.99817
H          4.19792       -2.49055        6.67443
C          4.51798       -4.44334        8.67362
H          2.42412       -4.57768        8.09919
H          2.88351       -3.01145        8.77537
H          4.86856       -5.27846        8.04618
H          4.35458       -4.83456        9.69024
H          5.33082       -3.70143        8.72741
H          1.66929       -3.89111        3.70904
C          1.81868       -3.31102        1.06937
C          2.35938       -4.76589        1.11288
H          0.71647       -3.35438        1.03482
H          2.11478       -2.85076        0.12188
C          1.92909       -5.59166       -0.12437
H          3.45994       -4.75614        1.18074
H          1.99923       -5.28157        2.01764
C          2.43936       -7.04936       -0.09501
H          2.29365       -5.09640       -1.04174
H          0.82755       -5.59138       -0.19581
H          3.54018       -7.08871       -0.05878
H          2.11416       -7.60151       -0.99079
H          2.05680       -7.58896        0.78636
