67
/cluster/projects/nn2506k/marcof/RuC_BondLength/evolutionary_desing/RUN28052021044948/Gen002/M00000045_I_DFT.out	Energy: -817392.1519728
Ru         0.07702        0.39659        0.09399
C         -0.30045       -0.50450        1.62969
C          1.94305        0.08056       -0.19344
Cl        -1.03038       -1.08660       -1.42974
Cl         0.06841        2.60355        1.03645
H          0.36734       -1.10686        2.24738
H         -1.35411       -0.41431        1.96498
N          2.59798        0.58522       -1.35513
N          2.94020       -0.56667        0.57773
C          4.03106        0.48923       -1.23573
C          1.88687        1.08658       -2.55186
C          4.20929       -0.61373       -0.11904
Cl         4.83849        2.15467       -0.59027
Cl         4.92100        0.19623       -2.81961
Cl         5.69319       -0.43443        0.96723
Cl         4.52499       -2.34702       -0.95432
C          1.60619        2.47780       -2.70055
C          1.54069        0.13627       -3.56193
C          2.00718        3.52067       -1.67331
C          0.91234        2.90835       -3.87139
H          2.31416        3.08386       -0.72657
H          1.17296        4.19862       -1.45739
H          2.84715        4.12903       -2.04289
C          0.62894        4.39449       -4.06893
C          0.48905        1.96478       -4.84922
H          0.57587        4.66092       -5.13072
H          1.40908        5.02004       -3.62123
H         -0.32778        4.69222       -3.60528
C         -0.35988        2.42038       -6.03244
C          0.84484        0.59177       -4.71733
H          0.26245        2.72209       -6.89297
H         -0.99101        3.27730       -5.77046
H         -1.02962        1.62493       -6.37824
C          0.46686       -0.40165       -5.81123
H          1.15999       -1.24828       -5.85494
H          0.46868        0.06522       -6.80350
H         -0.54120       -0.81904       -5.64338
C          1.86912       -1.34192       -3.44297
H          0.97235       -1.95189       -3.60640
H          2.26792       -1.61037       -2.46721
H          2.62044       -1.63925       -4.19029
C          2.78115       -1.16901        1.90755
C          2.40633       -2.54047        2.01778
C          3.04066       -0.35526        3.04966
C          1.92665       -3.35449        0.82422
C          2.39379       -3.13246        3.31452
H          1.77330       -2.74290       -0.06477
H          0.96547       -3.83677        1.05497
H          2.63696       -4.14870        0.55617
C          2.06196       -4.61269        3.47257
C          2.67963       -2.34692        4.46934
H          2.69185       -5.08279        4.23896
H          2.21312       -5.17218        2.54446
H          1.01250       -4.76720        3.77865
C          2.62896       -3.00102        5.84598
C          2.99096       -0.96176        4.34020
H          1.79575       -3.71131        5.92614
H          2.51046       -2.27054        6.65166
H          3.55407       -3.56665        6.05236
C          3.28349       -0.13490        5.58905
H          3.66724        0.86027        5.35265
H          4.03217       -0.62718        6.22678
H          2.37782        0.00564        6.20239
C          3.32239        1.13468        2.92481
H          2.59802        1.71533        3.51377
H          3.25437        1.49168        1.89863
H          4.32836        1.38607        3.29035
